+ 0.1 0 4 ping 500 ------- 0 0.0 5.0 -1 0
- 0.1 0 4 ping 500 ------- 0 0.0 5.0 -1 0
+ 0.1 2 4 ping 300 ------- 0 2.0 3.0 -1 1
- 0.1 2 4 ping 300 ------- 0 2.0 3.0 -1 1
r 0.10112 2 4 ping 300 ------- 0 2.0 3.0 -1 1
+ 0.10112 4 3 ping 300 ------- 0 2.0 3.0 -1 1
- 0.10112 4 3 ping 300 ------- 0 2.0 3.0 -1 1
r 0.101267 0 4 ping 500 ------- 0 0.0 5.0 -1 0
+ 0.101267 4 5 ping 500 ------- 0 0.0 5.0 -1 0
d 0.101267 4 5 ping 500 ------- 0 0.0 5.0 -1 0
r 0.11412 4 3 ping 300 ------- 0 2.0 3.0 -1 1
+ 0.11412 3 4 ping 64 ------- 0 3.0 2.0 -1 2
- 0.11412 3 4 ping 64 ------- 0 3.0 2.0 -1 2
r 0.11768 3 4 ping 64 ------- 0 3.0 2.0 -1 2
+ 0.11768 4 2 ping 64 ------- 0 3.0 2.0 -1 2
- 0.11768 4 2 ping 64 ------- 0 3.0 2.0 -1 2
r 0.118706 4 2 ping 64 ------- 0 3.0 2.0 -1 2
+ 0.2 0 4 ping 500 ------- 0 0.0 5.0 -1 3
- 0.2 0 4 ping 500 ------- 0 0.0 5.0 -1 3
+ 0.2 2 4 ping 300 ------- 0 2.0 3.0 -1 4
- 0.2 2 4 ping 300 ------- 0 2.0 3.0 -1 4
r 0.20112 2 4 ping 300 ------- 0 2.0 3.0 -1 4
+ 0.20112 4 3 ping 300 ------- 0 2.0 3.0 -1 4
- 0.20112 4 3 ping 300 ------- 0 2.0 3.0 -1 4
r 0.201267 0 4 ping 500 ------- 0 0.0 5.0 -1 3
+ 0.201267 4 5 ping 500 ------- 0 0.0 5.0 -1 3
d 0.201267 4 5 ping 500 ------- 0 0.0 5.0 -1 3
r 0.21412 4 3 ping 300 ------- 0 2.0 3.0 -1 4
+ 0.21412 3 4 ping 64 ------- 0 3.0 2.0 -1 5
- 0.21412 3 4 ping 64 ------- 0 3.0 2.0 -1 5
r 0.21768 3 4 ping 64 ------- 0 3.0 2.0 -1 5
+ 0.21768 4 2 ping 64 ------- 0 3.0 2.0 -1 5
- 0.21768 4 2 ping 64 ------- 0 3.0 2.0 -1 5
r 0.218706 4 2 ping 64 ------- 0 3.0 2.0 -1 5
+ 0.3 0 4 ping 500 ------- 0 0.0 5.0 -1 6
- 0.3 0 4 ping 500 ------- 0 0.0 5.0 -1 6
+ 0.3 2 4 ping 300 ------- 0 2.0 3.0 -1 7
- 0.3 2 4 ping 300 ------- 0 2.0 3.0 -1 7
r 0.30112 2 4 ping 300 ------- 0 2.0 3.0 -1 7
+ 0.30112 4 3 ping 300 ------- 0 2.0 3.0 -1 7
- 0.30112 4 3 ping 300 ------- 0 2.0 3.0 -1 7
r 0.301267 0 4 ping 500 ------- 0 0.0 5.0 -1 6
+ 0.301267 4 5 ping 500 ------- 0 0.0 5.0 -1 6
d 0.301267 4 5 ping 500 ------- 0 0.0 5.0 -1 6
r 0.31412 4 3 ping 300 ------- 0 2.0 3.0 -1 7
+ 0.31412 3 4 ping 64 ------- 0 3.0 2.0 -1 8
- 0.31412 3 4 ping 64 ------- 0 3.0 2.0 -1 8
r 0.31768 3 4 ping 64 ------- 0 3.0 2.0 -1 8
+ 0.31768 4 2 ping 64 ------- 0 3.0 2.0 -1 8
- 0.31768 4 2 ping 64 ------- 0 3.0 2.0 -1 8
r 0.318706 4 2 ping 64 ------- 0 3.0 2.0 -1 8
+ 0.4 0 4 ping 500 ------- 0 0.0 5.0 -1 9
- 0.4 0 4 ping 500 ------- 0 0.0 5.0 -1 9
+ 0.4 2 4 ping 300 ------- 0 2.0 3.0 -1 10
- 0.4 2 4 ping 300 ------- 0 2.0 3.0 -1 10
r 0.40112 2 4 ping 300 ------- 0 2.0 3.0 -1 10
+ 0.40112 4 3 ping 300 ------- 0 2.0 3.0 -1 10
- 0.40112 4 3 ping 300 ------- 0 2.0 3.0 -1 10
r 0.401267 0 4 ping 500 ------- 0 0.0 5.0 -1 9
+ 0.401267 4 5 ping 500 ------- 0 0.0 5.0 -1 9
d 0.401267 4 5 ping 500 ------- 0 0.0 5.0 -1 9
r 0.41412 4 3 ping 300 ------- 0 2.0 3.0 -1 10
+ 0.41412 3 4 ping 64 ------- 0 3.0 2.0 -1 11
- 0.41412 3 4 ping 64 ------- 0 3.0 2.0 -1 11
r 0.41768 3 4 ping 64 ------- 0 3.0 2.0 -1 11
+ 0.41768 4 2 ping 64 ------- 0 3.0 2.0 -1 11
- 0.41768 4 2 ping 64 ------- 0 3.0 2.0 -1 11
r 0.418706 4 2 ping 64 ------- 0 3.0 2.0 -1 11
+ 0.5 0 4 ping 500 ------- 0 0.0 5.0 -1 12
- 0.5 0 4 ping 500 ------- 0 0.0 5.0 -1 12
+ 0.5 2 4 ping 300 ------- 0 2.0 3.0 -1 13
- 0.5 2 4 ping 300 ------- 0 2.0 3.0 -1 13
r 0.50112 2 4 ping 300 ------- 0 2.0 3.0 -1 13
+ 0.50112 4 3 ping 300 ------- 0 2.0 3.0 -1 13
- 0.50112 4 3 ping 300 ------- 0 2.0 3.0 -1 13
r 0.501267 0 4 ping 500 ------- 0 0.0 5.0 -1 12
+ 0.501267 4 5 ping 500 ------- 0 0.0 5.0 -1 12
d 0.501267 4 5 ping 500 ------- 0 0.0 5.0 -1 12
r 0.51412 4 3 ping 300 ------- 0 2.0 3.0 -1 13
+ 0.51412 3 4 ping 64 ------- 0 3.0 2.0 -1 14
- 0.51412 3 4 ping 64 ------- 0 3.0 2.0 -1 14
r 0.51768 3 4 ping 64 ------- 0 3.0 2.0 -1 14
+ 0.51768 4 2 ping 64 ------- 0 3.0 2.0 -1 14
- 0.51768 4 2 ping 64 ------- 0 3.0 2.0 -1 14
r 0.518706 4 2 ping 64 ------- 0 3.0 2.0 -1 14
+ 0.6 0 4 ping 500 ------- 0 0.0 5.0 -1 15
- 0.6 0 4 ping 500 ------- 0 0.0 5.0 -1 15
+ 0.6 2 4 ping 300 ------- 0 2.0 3.0 -1 16
- 0.6 2 4 ping 300 ------- 0 2.0 3.0 -1 16
r 0.60112 2 4 ping 300 ------- 0 2.0 3.0 -1 16
+ 0.60112 4 3 ping 300 ------- 0 2.0 3.0 -1 16
- 0.60112 4 3 ping 300 ------- 0 2.0 3.0 -1 16
r 0.601267 0 4 ping 500 ------- 0 0.0 5.0 -1 15
+ 0.601267 4 5 ping 500 ------- 0 0.0 5.0 -1 15
d 0.601267 4 5 ping 500 ------- 0 0.0 5.0 -1 15
r 0.61412 4 3 ping 300 ------- 0 2.0 3.0 -1 16
+ 0.61412 3 4 ping 64 ------- 0 3.0 2.0 -1 17
- 0.61412 3 4 ping 64 ------- 0 3.0 2.0 -1 17
r 0.61768 3 4 ping 64 ------- 0 3.0 2.0 -1 17
+ 0.61768 4 2 ping 64 ------- 0 3.0 2.0 -1 17
- 0.61768 4 2 ping 64 ------- 0 3.0 2.0 -1 17
r 0.618706 4 2 ping 64 ------- 0 3.0 2.0 -1 17
+ 0.7 0 4 ping 500 ------- 0 0.0 5.0 -1 18
- 0.7 0 4 ping 500 ------- 0 0.0 5.0 -1 18
+ 0.7 2 4 ping 300 ------- 0 2.0 3.0 -1 19
- 0.7 2 4 ping 300 ------- 0 2.0 3.0 -1 19
r 0.70112 2 4 ping 300 ------- 0 2.0 3.0 -1 19
+ 0.70112 4 3 ping 300 ------- 0 2.0 3.0 -1 19
- 0.70112 4 3 ping 300 ------- 0 2.0 3.0 -1 19
r 0.701267 0 4 ping 500 ------- 0 0.0 5.0 -1 18
+ 0.701267 4 5 ping 500 ------- 0 0.0 5.0 -1 18
d 0.701267 4 5 ping 500 ------- 0 0.0 5.0 -1 18
r 0.71412 4 3 ping 300 ------- 0 2.0 3.0 -1 19
+ 0.71412 3 4 ping 64 ------- 0 3.0 2.0 -1 20
- 0.71412 3 4 ping 64 ------- 0 3.0 2.0 -1 20
r 0.71768 3 4 ping 64 ------- 0 3.0 2.0 -1 20
+ 0.71768 4 2 ping 64 ------- 0 3.0 2.0 -1 20
- 0.71768 4 2 ping 64 ------- 0 3.0 2.0 -1 20
r 0.718706 4 2 ping 64 ------- 0 3.0 2.0 -1 20
+ 0.8 0 4 ping 500 ------- 0 0.0 5.0 -1 21
- 0.8 0 4 ping 500 ------- 0 0.0 5.0 -1 21
+ 0.8 2 4 ping 300 ------- 0 2.0 3.0 -1 22
- 0.8 2 4 ping 300 ------- 0 2.0 3.0 -1 22
r 0.80112 2 4 ping 300 ------- 0 2.0 3.0 -1 22
+ 0.80112 4 3 ping 300 ------- 0 2.0 3.0 -1 22
- 0.80112 4 3 ping 300 ------- 0 2.0 3.0 -1 22
r 0.801267 0 4 ping 500 ------- 0 0.0 5.0 -1 21
+ 0.801267 4 5 ping 500 ------- 0 0.0 5.0 -1 21
d 0.801267 4 5 ping 500 ------- 0 0.0 5.0 -1 21
r 0.81412 4 3 ping 300 ------- 0 2.0 3.0 -1 22
+ 0.81412 3 4 ping 64 ------- 0 3.0 2.0 -1 23
- 0.81412 3 4 ping 64 ------- 0 3.0 2.0 -1 23
r 0.81768 3 4 ping 64 ------- 0 3.0 2.0 -1 23
+ 0.81768 4 2 ping 64 ------- 0 3.0 2.0 -1 23
- 0.81768 4 2 ping 64 ------- 0 3.0 2.0 -1 23
r 0.818706 4 2 ping 64 ------- 0 3.0 2.0 -1 23
+ 0.9 0 4 ping 500 ------- 0 0.0 5.0 -1 24
- 0.9 0 4 ping 500 ------- 0 0.0 5.0 -1 24
+ 0.9 2 4 ping 300 ------- 0 2.0 3.0 -1 25
- 0.9 2 4 ping 300 ------- 0 2.0 3.0 -1 25
r 0.90112 2 4 ping 300 ------- 0 2.0 3.0 -1 25
+ 0.90112 4 3 ping 300 ------- 0 2.0 3.0 -1 25
- 0.90112 4 3 ping 300 ------- 0 2.0 3.0 -1 25
r 0.901267 0 4 ping 500 ------- 0 0.0 5.0 -1 24
+ 0.901267 4 5 ping 500 ------- 0 0.0 5.0 -1 24
d 0.901267 4 5 ping 500 ------- 0 0.0 5.0 -1 24
r 0.91412 4 3 ping 300 ------- 0 2.0 3.0 -1 25
+ 0.91412 3 4 ping 64 ------- 0 3.0 2.0 -1 26
- 0.91412 3 4 ping 64 ------- 0 3.0 2.0 -1 26
r 0.91768 3 4 ping 64 ------- 0 3.0 2.0 -1 26
+ 0.91768 4 2 ping 64 ------- 0 3.0 2.0 -1 26
- 0.91768 4 2 ping 64 ------- 0 3.0 2.0 -1 26
r 0.918706 4 2 ping 64 ------- 0 3.0 2.0 -1 26
+ 1 0 4 ping 500 ------- 0 0.0 5.0 -1 27
- 1 0 4 ping 500 ------- 0 0.0 5.0 -1 27
+ 1 2 4 ping 300 ------- 0 2.0 3.0 -1 28
- 1 2 4 ping 300 ------- 0 2.0 3.0 -1 28
r 1.00112 2 4 ping 300 ------- 0 2.0 3.0 -1 28
+ 1.00112 4 3 ping 300 ------- 0 2.0 3.0 -1 28
- 1.00112 4 3 ping 300 ------- 0 2.0 3.0 -1 28
r 1.001267 0 4 ping 500 ------- 0 0.0 5.0 -1 27
+ 1.001267 4 5 ping 500 ------- 0 0.0 5.0 -1 27
d 1.001267 4 5 ping 500 ------- 0 0.0 5.0 -1 27
r 1.01412 4 3 ping 300 ------- 0 2.0 3.0 -1 28
+ 1.01412 3 4 ping 64 ------- 0 3.0 2.0 -1 29
- 1.01412 3 4 ping 64 ------- 0 3.0 2.0 -1 29
r 1.01768 3 4 ping 64 ------- 0 3.0 2.0 -1 29
+ 1.01768 4 2 ping 64 ------- 0 3.0 2.0 -1 29
- 1.01768 4 2 ping 64 ------- 0 3.0 2.0 -1 29
r 1.018706 4 2 ping 64 ------- 0 3.0 2.0 -1 29
+ 1.1 0 4 ping 500 ------- 0 0.0 5.0 -1 30
- 1.1 0 4 ping 500 ------- 0 0.0 5.0 -1 30
+ 1.1 2 4 ping 300 ------- 0 2.0 3.0 -1 31
- 1.1 2 4 ping 300 ------- 0 2.0 3.0 -1 31
r 1.10112 2 4 ping 300 ------- 0 2.0 3.0 -1 31
+ 1.10112 4 3 ping 300 ------- 0 2.0 3.0 -1 31
- 1.10112 4 3 ping 300 ------- 0 2.0 3.0 -1 31
r 1.101267 0 4 ping 500 ------- 0 0.0 5.0 -1 30
+ 1.101267 4 5 ping 500 ------- 0 0.0 5.0 -1 30
d 1.101267 4 5 ping 500 ------- 0 0.0 5.0 -1 30
r 1.11412 4 3 ping 300 ------- 0 2.0 3.0 -1 31
+ 1.11412 3 4 ping 64 ------- 0 3.0 2.0 -1 32
- 1.11412 3 4 ping 64 ------- 0 3.0 2.0 -1 32
r 1.11768 3 4 ping 64 ------- 0 3.0 2.0 -1 32
+ 1.11768 4 2 ping 64 ------- 0 3.0 2.0 -1 32
- 1.11768 4 2 ping 64 ------- 0 3.0 2.0 -1 32
r 1.118706 4 2 ping 64 ------- 0 3.0 2.0 -1 32
+ 1.2 0 4 ping 500 ------- 0 0.0 5.0 -1 33
- 1.2 0 4 ping 500 ------- 0 0.0 5.0 -1 33
+ 1.2 2 4 ping 300 ------- 0 2.0 3.0 -1 34
- 1.2 2 4 ping 300 ------- 0 2.0 3.0 -1 34
r 1.20112 2 4 ping 300 ------- 0 2.0 3.0 -1 34
+ 1.20112 4 3 ping 300 ------- 0 2.0 3.0 -1 34
- 1.20112 4 3 ping 300 ------- 0 2.0 3.0 -1 34
r 1.201267 0 4 ping 500 ------- 0 0.0 5.0 -1 33
+ 1.201267 4 5 ping 500 ------- 0 0.0 5.0 -1 33
d 1.201267 4 5 ping 500 ------- 0 0.0 5.0 -1 33
r 1.21412 4 3 ping 300 ------- 0 2.0 3.0 -1 34
+ 1.21412 3 4 ping 64 ------- 0 3.0 2.0 -1 35
- 1.21412 3 4 ping 64 ------- 0 3.0 2.0 -1 35
r 1.21768 3 4 ping 64 ------- 0 3.0 2.0 -1 35
+ 1.21768 4 2 ping 64 ------- 0 3.0 2.0 -1 35
- 1.21768 4 2 ping 64 ------- 0 3.0 2.0 -1 35
r 1.218706 4 2 ping 64 ------- 0 3.0 2.0 -1 35
+ 1.3 0 4 ping 500 ------- 0 0.0 5.0 -1 36
- 1.3 0 4 ping 500 ------- 0 0.0 5.0 -1 36
+ 1.3 2 4 ping 300 ------- 0 2.0 3.0 -1 37
- 1.3 2 4 ping 300 ------- 0 2.0 3.0 -1 37
r 1.30112 2 4 ping 300 ------- 0 2.0 3.0 -1 37
+ 1.30112 4 3 ping 300 ------- 0 2.0 3.0 -1 37
- 1.30112 4 3 ping 300 ------- 0 2.0 3.0 -1 37
r 1.301267 0 4 ping 500 ------- 0 0.0 5.0 -1 36
+ 1.301267 4 5 ping 500 ------- 0 0.0 5.0 -1 36
d 1.301267 4 5 ping 500 ------- 0 0.0 5.0 -1 36
r 1.31412 4 3 ping 300 ------- 0 2.0 3.0 -1 37
+ 1.31412 3 4 ping 64 ------- 0 3.0 2.0 -1 38
- 1.31412 3 4 ping 64 ------- 0 3.0 2.0 -1 38
r 1.31768 3 4 ping 64 ------- 0 3.0 2.0 -1 38
+ 1.31768 4 2 ping 64 ------- 0 3.0 2.0 -1 38
- 1.31768 4 2 ping 64 ------- 0 3.0 2.0 -1 38
r 1.318706 4 2 ping 64 ------- 0 3.0 2.0 -1 38
+ 1.4 0 4 ping 500 ------- 0 0.0 5.0 -1 39
- 1.4 0 4 ping 500 ------- 0 0.0 5.0 -1 39
+ 1.4 2 4 ping 300 ------- 0 2.0 3.0 -1 40
- 1.4 2 4 ping 300 ------- 0 2.0 3.0 -1 40
r 1.40112 2 4 ping 300 ------- 0 2.0 3.0 -1 40
+ 1.40112 4 3 ping 300 ------- 0 2.0 3.0 -1 40
- 1.40112 4 3 ping 300 ------- 0 2.0 3.0 -1 40
r 1.401267 0 4 ping 500 ------- 0 0.0 5.0 -1 39
+ 1.401267 4 5 ping 500 ------- 0 0.0 5.0 -1 39
d 1.401267 4 5 ping 500 ------- 0 0.0 5.0 -1 39
r 1.41412 4 3 ping 300 ------- 0 2.0 3.0 -1 40
+ 1.41412 3 4 ping 64 ------- 0 3.0 2.0 -1 41
- 1.41412 3 4 ping 64 ------- 0 3.0 2.0 -1 41
r 1.41768 3 4 ping 64 ------- 0 3.0 2.0 -1 41
+ 1.41768 4 2 ping 64 ------- 0 3.0 2.0 -1 41
- 1.41768 4 2 ping 64 ------- 0 3.0 2.0 -1 41
r 1.418706 4 2 ping 64 ------- 0 3.0 2.0 -1 41
+ 1.5 0 4 ping 500 ------- 0 0.0 5.0 -1 42
- 1.5 0 4 ping 500 ------- 0 0.0 5.0 -1 42
+ 1.5 2 4 ping 300 ------- 0 2.0 3.0 -1 43
- 1.5 2 4 ping 300 ------- 0 2.0 3.0 -1 43
r 1.50112 2 4 ping 300 ------- 0 2.0 3.0 -1 43
+ 1.50112 4 3 ping 300 ------- 0 2.0 3.0 -1 43
- 1.50112 4 3 ping 300 ------- 0 2.0 3.0 -1 43
r 1.501267 0 4 ping 500 ------- 0 0.0 5.0 -1 42
+ 1.501267 4 5 ping 500 ------- 0 0.0 5.0 -1 42
d 1.501267 4 5 ping 500 ------- 0 0.0 5.0 -1 42
r 1.51412 4 3 ping 300 ------- 0 2.0 3.0 -1 43
+ 1.51412 3 4 ping 64 ------- 0 3.0 2.0 -1 44
- 1.51412 3 4 ping 64 ------- 0 3.0 2.0 -1 44
r 1.51768 3 4 ping 64 ------- 0 3.0 2.0 -1 44
+ 1.51768 4 2 ping 64 ------- 0 3.0 2.0 -1 44
- 1.51768 4 2 ping 64 ------- 0 3.0 2.0 -1 44
r 1.518706 4 2 ping 64 ------- 0 3.0 2.0 -1 44
+ 1.6 0 4 ping 500 ------- 0 0.0 5.0 -1 45
- 1.6 0 4 ping 500 ------- 0 0.0 5.0 -1 45
+ 1.6 2 4 ping 300 ------- 0 2.0 3.0 -1 46
- 1.6 2 4 ping 300 ------- 0 2.0 3.0 -1 46
r 1.60112 2 4 ping 300 ------- 0 2.0 3.0 -1 46
+ 1.60112 4 3 ping 300 ------- 0 2.0 3.0 -1 46
- 1.60112 4 3 ping 300 ------- 0 2.0 3.0 -1 46
r 1.601267 0 4 ping 500 ------- 0 0.0 5.0 -1 45
+ 1.601267 4 5 ping 500 ------- 0 0.0 5.0 -1 45
d 1.601267 4 5 ping 500 ------- 0 0.0 5.0 -1 45
r 1.61412 4 3 ping 300 ------- 0 2.0 3.0 -1 46
+ 1.61412 3 4 ping 64 ------- 0 3.0 2.0 -1 47
- 1.61412 3 4 ping 64 ------- 0 3.0 2.0 -1 47
r 1.61768 3 4 ping 64 ------- 0 3.0 2.0 -1 47
+ 1.61768 4 2 ping 64 ------- 0 3.0 2.0 -1 47
- 1.61768 4 2 ping 64 ------- 0 3.0 2.0 -1 47
r 1.618706 4 2 ping 64 ------- 0 3.0 2.0 -1 47
+ 1.7 0 4 ping 500 ------- 0 0.0 5.0 -1 48
- 1.7 0 4 ping 500 ------- 0 0.0 5.0 -1 48
+ 1.7 2 4 ping 300 ------- 0 2.0 3.0 -1 49
- 1.7 2 4 ping 300 ------- 0 2.0 3.0 -1 49
r 1.70112 2 4 ping 300 ------- 0 2.0 3.0 -1 49
+ 1.70112 4 3 ping 300 ------- 0 2.0 3.0 -1 49
- 1.70112 4 3 ping 300 ------- 0 2.0 3.0 -1 49
r 1.701267 0 4 ping 500 ------- 0 0.0 5.0 -1 48
+ 1.701267 4 5 ping 500 ------- 0 0.0 5.0 -1 48
d 1.701267 4 5 ping 500 ------- 0 0.0 5.0 -1 48
r 1.71412 4 3 ping 300 ------- 0 2.0 3.0 -1 49
+ 1.71412 3 4 ping 64 ------- 0 3.0 2.0 -1 50
- 1.71412 3 4 ping 64 ------- 0 3.0 2.0 -1 50
r 1.71768 3 4 ping 64 ------- 0 3.0 2.0 -1 50
+ 1.71768 4 2 ping 64 ------- 0 3.0 2.0 -1 50
- 1.71768 4 2 ping 64 ------- 0 3.0 2.0 -1 50
r 1.718706 4 2 ping 64 ------- 0 3.0 2.0 -1 50
+ 1.8 0 4 ping 500 ------- 0 0.0 5.0 -1 51
- 1.8 0 4 ping 500 ------- 0 0.0 5.0 -1 51
+ 1.8 2 4 ping 300 ------- 0 2.0 3.0 -1 52
- 1.8 2 4 ping 300 ------- 0 2.0 3.0 -1 52
r 1.80112 2 4 ping 300 ------- 0 2.0 3.0 -1 52
+ 1.80112 4 3 ping 300 ------- 0 2.0 3.0 -1 52
- 1.80112 4 3 ping 300 ------- 0 2.0 3.0 -1 52
r 1.801267 0 4 ping 500 ------- 0 0.0 5.0 -1 51
+ 1.801267 4 5 ping 500 ------- 0 0.0 5.0 -1 51
d 1.801267 4 5 ping 500 ------- 0 0.0 5.0 -1 51
r 1.81412 4 3 ping 300 ------- 0 2.0 3.0 -1 52
+ 1.81412 3 4 ping 64 ------- 0 3.0 2.0 -1 53
- 1.81412 3 4 ping 64 ------- 0 3.0 2.0 -1 53
r 1.81768 3 4 ping 64 ------- 0 3.0 2.0 -1 53
+ 1.81768 4 2 ping 64 ------- 0 3.0 2.0 -1 53
- 1.81768 4 2 ping 64 ------- 0 3.0 2.0 -1 53
r 1.818706 4 2 ping 64 ------- 0 3.0 2.0 -1 53
+ 1.9 0 4 ping 500 ------- 0 0.0 5.0 -1 54
- 1.9 0 4 ping 500 ------- 0 0.0 5.0 -1 54
+ 1.9 2 4 ping 300 ------- 0 2.0 3.0 -1 55
- 1.9 2 4 ping 300 ------- 0 2.0 3.0 -1 55
r 1.90112 2 4 ping 300 ------- 0 2.0 3.0 -1 55
+ 1.90112 4 3 ping 300 ------- 0 2.0 3.0 -1 55
- 1.90112 4 3 ping 300 ------- 0 2.0 3.0 -1 55
r 1.901267 0 4 ping 500 ------- 0 0.0 5.0 -1 54
+ 1.901267 4 5 ping 500 ------- 0 0.0 5.0 -1 54
d 1.901267 4 5 ping 500 ------- 0 0.0 5.0 -1 54
r 1.91412 4 3 ping 300 ------- 0 2.0 3.0 -1 55
+ 1.91412 3 4 ping 64 ------- 0 3.0 2.0 -1 56
- 1.91412 3 4 ping 64 ------- 0 3.0 2.0 -1 56
r 1.91768 3 4 ping 64 ------- 0 3.0 2.0 -1 56
+ 1.91768 4 2 ping 64 ------- 0 3.0 2.0 -1 56
- 1.91768 4 2 ping 64 ------- 0 3.0 2.0 -1 56
r 1.918706 4 2 ping 64 ------- 0 3.0 2.0 -1 56
+ 2 0 4 ping 500 ------- 0 0.0 5.0 -1 57
- 2 0 4 ping 500 ------- 0 0.0 5.0 -1 57
+ 2 2 4 ping 300 ------- 0 2.0 3.0 -1 58
- 2 2 4 ping 300 ------- 0 2.0 3.0 -1 58
r 2.00112 2 4 ping 300 ------- 0 2.0 3.0 -1 58
+ 2.00112 4 3 ping 300 ------- 0 2.0 3.0 -1 58
- 2.00112 4 3 ping 300 ------- 0 2.0 3.0 -1 58
r 2.001267 0 4 ping 500 ------- 0 0.0 5.0 -1 57
+ 2.001267 4 5 ping 500 ------- 0 0.0 5.0 -1 57
d 2.001267 4 5 ping 500 ------- 0 0.0 5.0 -1 57
r 2.01412 4 3 ping 300 ------- 0 2.0 3.0 -1 58
+ 2.01412 3 4 ping 64 ------- 0 3.0 2.0 -1 59
- 2.01412 3 4 ping 64 ------- 0 3.0 2.0 -1 59
r 2.01768 3 4 ping 64 ------- 0 3.0 2.0 -1 59
+ 2.01768 4 2 ping 64 ------- 0 3.0 2.0 -1 59
- 2.01768 4 2 ping 64 ------- 0 3.0 2.0 -1 59
r 2.018706 4 2 ping 64 ------- 0 3.0 2.0 -1 59
+ 2.1 0 4 ping 500 ------- 0 0.0 5.0 -1 60
- 2.1 0 4 ping 500 ------- 0 0.0 5.0 -1 60
+ 2.1 2 4 ping 300 ------- 0 2.0 3.0 -1 61
- 2.1 2 4 ping 300 ------- 0 2.0 3.0 -1 61
r 2.10112 2 4 ping 300 ------- 0 2.0 3.0 -1 61
+ 2.10112 4 3 ping 300 ------- 0 2.0 3.0 -1 61
- 2.10112 4 3 ping 300 ------- 0 2.0 3.0 -1 61
r 2.101267 0 4 ping 500 ------- 0 0.0 5.0 -1 60
+ 2.101267 4 5 ping 500 ------- 0 0.0 5.0 -1 60
d 2.101267 4 5 ping 500 ------- 0 0.0 5.0 -1 60
r 2.11412 4 3 ping 300 ------- 0 2.0 3.0 -1 61
+ 2.11412 3 4 ping 64 ------- 0 3.0 2.0 -1 62
- 2.11412 3 4 ping 64 ------- 0 3.0 2.0 -1 62
r 2.11768 3 4 ping 64 ------- 0 3.0 2.0 -1 62
+ 2.11768 4 2 ping 64 ------- 0 3.0 2.0 -1 62
- 2.11768 4 2 ping 64 ------- 0 3.0 2.0 -1 62
r 2.118706 4 2 ping 64 ------- 0 3.0 2.0 -1 62
+ 2.2 0 4 ping 500 ------- 0 0.0 5.0 -1 63
- 2.2 0 4 ping 500 ------- 0 0.0 5.0 -1 63
+ 2.2 2 4 ping 300 ------- 0 2.0 3.0 -1 64
- 2.2 2 4 ping 300 ------- 0 2.0 3.0 -1 64
r 2.20112 2 4 ping 300 ------- 0 2.0 3.0 -1 64
+ 2.20112 4 3 ping 300 ------- 0 2.0 3.0 -1 64
- 2.20112 4 3 ping 300 ------- 0 2.0 3.0 -1 64
r 2.201267 0 4 ping 500 ------- 0 0.0 5.0 -1 63
+ 2.201267 4 5 ping 500 ------- 0 0.0 5.0 -1 63
d 2.201267 4 5 ping 500 ------- 0 0.0 5.0 -1 63
r 2.21412 4 3 ping 300 ------- 0 2.0 3.0 -1 64
+ 2.21412 3 4 ping 64 ------- 0 3.0 2.0 -1 65
- 2.21412 3 4 ping 64 ------- 0 3.0 2.0 -1 65
r 2.21768 3 4 ping 64 ------- 0 3.0 2.0 -1 65
+ 2.21768 4 2 ping 64 ------- 0 3.0 2.0 -1 65
- 2.21768 4 2 ping 64 ------- 0 3.0 2.0 -1 65
r 2.218706 4 2 ping 64 ------- 0 3.0 2.0 -1 65
+ 2.3 0 4 ping 500 ------- 0 0.0 5.0 -1 66
- 2.3 0 4 ping 500 ------- 0 0.0 5.0 -1 66
+ 2.3 2 4 ping 300 ------- 0 2.0 3.0 -1 67
- 2.3 2 4 ping 300 ------- 0 2.0 3.0 -1 67
r 2.30112 2 4 ping 300 ------- 0 2.0 3.0 -1 67
+ 2.30112 4 3 ping 300 ------- 0 2.0 3.0 -1 67
- 2.30112 4 3 ping 300 ------- 0 2.0 3.0 -1 67
r 2.301267 0 4 ping 500 ------- 0 0.0 5.0 -1 66
+ 2.301267 4 5 ping 500 ------- 0 0.0 5.0 -1 66
d 2.301267 4 5 ping 500 ------- 0 0.0 5.0 -1 66
r 2.31412 4 3 ping 300 ------- 0 2.0 3.0 -1 67
+ 2.31412 3 4 ping 64 ------- 0 3.0 2.0 -1 68
- 2.31412 3 4 ping 64 ------- 0 3.0 2.0 -1 68
r 2.31768 3 4 ping 64 ------- 0 3.0 2.0 -1 68
+ 2.31768 4 2 ping 64 ------- 0 3.0 2.0 -1 68
- 2.31768 4 2 ping 64 ------- 0 3.0 2.0 -1 68
r 2.318706 4 2 ping 64 ------- 0 3.0 2.0 -1 68
+ 2.4 0 4 ping 500 ------- 0 0.0 5.0 -1 69
- 2.4 0 4 ping 500 ------- 0 0.0 5.0 -1 69
+ 2.4 2 4 ping 300 ------- 0 2.0 3.0 -1 70
- 2.4 2 4 ping 300 ------- 0 2.0 3.0 -1 70
r 2.40112 2 4 ping 300 ------- 0 2.0 3.0 -1 70
+ 2.40112 4 3 ping 300 ------- 0 2.0 3.0 -1 70
- 2.40112 4 3 ping 300 ------- 0 2.0 3.0 -1 70
r 2.401267 0 4 ping 500 ------- 0 0.0 5.0 -1 69
+ 2.401267 4 5 ping 500 ------- 0 0.0 5.0 -1 69
d 2.401267 4 5 ping 500 ------- 0 0.0 5.0 -1 69
r 2.41412 4 3 ping 300 ------- 0 2.0 3.0 -1 70
+ 2.41412 3 4 ping 64 ------- 0 3.0 2.0 -1 71
- 2.41412 3 4 ping 64 ------- 0 3.0 2.0 -1 71
r 2.41768 3 4 ping 64 ------- 0 3.0 2.0 -1 71
+ 2.41768 4 2 ping 64 ------- 0 3.0 2.0 -1 71
- 2.41768 4 2 ping 64 ------- 0 3.0 2.0 -1 71
r 2.418706 4 2 ping 64 ------- 0 3.0 2.0 -1 71
+ 2.5 0 4 ping 500 ------- 0 0.0 5.0 -1 72
- 2.5 0 4 ping 500 ------- 0 0.0 5.0 -1 72
+ 2.5 2 4 ping 300 ------- 0 2.0 3.0 -1 73
- 2.5 2 4 ping 300 ------- 0 2.0 3.0 -1 73
r 2.50112 2 4 ping 300 ------- 0 2.0 3.0 -1 73
+ 2.50112 4 3 ping 300 ------- 0 2.0 3.0 -1 73
- 2.50112 4 3 ping 300 ------- 0 2.0 3.0 -1 73
r 2.501267 0 4 ping 500 ------- 0 0.0 5.0 -1 72
+ 2.501267 4 5 ping 500 ------- 0 0.0 5.0 -1 72
d 2.501267 4 5 ping 500 ------- 0 0.0 5.0 -1 72
r 2.51412 4 3 ping 300 ------- 0 2.0 3.0 -1 73
+ 2.51412 3 4 ping 64 ------- 0 3.0 2.0 -1 74
- 2.51412 3 4 ping 64 ------- 0 3.0 2.0 -1 74
r 2.51768 3 4 ping 64 ------- 0 3.0 2.0 -1 74
+ 2.51768 4 2 ping 64 ------- 0 3.0 2.0 -1 74
- 2.51768 4 2 ping 64 ------- 0 3.0 2.0 -1 74
r 2.518706 4 2 ping 64 ------- 0 3.0 2.0 -1 74
+ 2.6 0 4 ping 500 ------- 0 0.0 5.0 -1 75
- 2.6 0 4 ping 500 ------- 0 0.0 5.0 -1 75
+ 2.6 2 4 ping 300 ------- 0 2.0 3.0 -1 76
- 2.6 2 4 ping 300 ------- 0 2.0 3.0 -1 76
r 2.60112 2 4 ping 300 ------- 0 2.0 3.0 -1 76
+ 2.60112 4 3 ping 300 ------- 0 2.0 3.0 -1 76
- 2.60112 4 3 ping 300 ------- 0 2.0 3.0 -1 76
r 2.601267 0 4 ping 500 ------- 0 0.0 5.0 -1 75
+ 2.601267 4 5 ping 500 ------- 0 0.0 5.0 -1 75
d 2.601267 4 5 ping 500 ------- 0 0.0 5.0 -1 75
r 2.61412 4 3 ping 300 ------- 0 2.0 3.0 -1 76
+ 2.61412 3 4 ping 64 ------- 0 3.0 2.0 -1 77
- 2.61412 3 4 ping 64 ------- 0 3.0 2.0 -1 77
r 2.61768 3 4 ping 64 ------- 0 3.0 2.0 -1 77
+ 2.61768 4 2 ping 64 ------- 0 3.0 2.0 -1 77
- 2.61768 4 2 ping 64 ------- 0 3.0 2.0 -1 77
r 2.618706 4 2 ping 64 ------- 0 3.0 2.0 -1 77
+ 2.7 0 4 ping 500 ------- 0 0.0 5.0 -1 78
- 2.7 0 4 ping 500 ------- 0 0.0 5.0 -1 78
+ 2.7 2 4 ping 300 ------- 0 2.0 3.0 -1 79
- 2.7 2 4 ping 300 ------- 0 2.0 3.0 -1 79
r 2.70112 2 4 ping 300 ------- 0 2.0 3.0 -1 79
+ 2.70112 4 3 ping 300 ------- 0 2.0 3.0 -1 79
- 2.70112 4 3 ping 300 ------- 0 2.0 3.0 -1 79
r 2.701267 0 4 ping 500 ------- 0 0.0 5.0 -1 78
+ 2.701267 4 5 ping 500 ------- 0 0.0 5.0 -1 78
d 2.701267 4 5 ping 500 ------- 0 0.0 5.0 -1 78
r 2.71412 4 3 ping 300 ------- 0 2.0 3.0 -1 79
+ 2.71412 3 4 ping 64 ------- 0 3.0 2.0 -1 80
- 2.71412 3 4 ping 64 ------- 0 3.0 2.0 -1 80
r 2.71768 3 4 ping 64 ------- 0 3.0 2.0 -1 80
+ 2.71768 4 2 ping 64 ------- 0 3.0 2.0 -1 80
- 2.71768 4 2 ping 64 ------- 0 3.0 2.0 -1 80
r 2.718706 4 2 ping 64 ------- 0 3.0 2.0 -1 80
+ 2.8 0 4 ping 500 ------- 0 0.0 5.0 -1 81
- 2.8 0 4 ping 500 ------- 0 0.0 5.0 -1 81
+ 2.8 2 4 ping 300 ------- 0 2.0 3.0 -1 82
- 2.8 2 4 ping 300 ------- 0 2.0 3.0 -1 82
r 2.80112 2 4 ping 300 ------- 0 2.0 3.0 -1 82
+ 2.80112 4 3 ping 300 ------- 0 2.0 3.0 -1 82
- 2.80112 4 3 ping 300 ------- 0 2.0 3.0 -1 82
r 2.801267 0 4 ping 500 ------- 0 0.0 5.0 -1 81
+ 2.801267 4 5 ping 500 ------- 0 0.0 5.0 -1 81
d 2.801267 4 5 ping 500 ------- 0 0.0 5.0 -1 81
r 2.81412 4 3 ping 300 ------- 0 2.0 3.0 -1 82
+ 2.81412 3 4 ping 64 ------- 0 3.0 2.0 -1 83
- 2.81412 3 4 ping 64 ------- 0 3.0 2.0 -1 83
r 2.81768 3 4 ping 64 ------- 0 3.0 2.0 -1 83
+ 2.81768 4 2 ping 64 ------- 0 3.0 2.0 -1 83
- 2.81768 4 2 ping 64 ------- 0 3.0 2.0 -1 83
r 2.818706 4 2 ping 64 ------- 0 3.0 2.0 -1 83
+ 2.9 0 4 ping 500 ------- 0 0.0 5.0 -1 84
- 2.9 0 4 ping 500 ------- 0 0.0 5.0 -1 84
+ 2.9 2 4 ping 300 ------- 0 2.0 3.0 -1 85
- 2.9 2 4 ping 300 ------- 0 2.0 3.0 -1 85
r 2.90112 2 4 ping 300 ------- 0 2.0 3.0 -1 85
+ 2.90112 4 3 ping 300 ------- 0 2.0 3.0 -1 85
- 2.90112 4 3 ping 300 ------- 0 2.0 3.0 -1 85
r 2.901267 0 4 ping 500 ------- 0 0.0 5.0 -1 84
+ 2.901267 4 5 ping 500 ------- 0 0.0 5.0 -1 84
d 2.901267 4 5 ping 500 ------- 0 0.0 5.0 -1 84
r 2.91412 4 3 ping 300 ------- 0 2.0 3.0 -1 85
+ 2.91412 3 4 ping 64 ------- 0 3.0 2.0 -1 86
- 2.91412 3 4 ping 64 ------- 0 3.0 2.0 -1 86
r 2.91768 3 4 ping 64 ------- 0 3.0 2.0 -1 86
+ 2.91768 4 2 ping 64 ------- 0 3.0 2.0 -1 86
- 2.91768 4 2 ping 64 ------- 0 3.0 2.0 -1 86
r 2.918706 4 2 ping 64 ------- 0 3.0 2.0 -1 86
