+ 0.2 0 1 cbr 1000 ------- 0 0.0 2.0 0 0
- 0.2 0 1 cbr 1000 ------- 0 0.0 2.0 0 0
+ 0.2 0 1 cbr 24 ------- 0 0.0 2.0 1 1
- 0.2016 0 1 cbr 24 ------- 0 0.0 2.0 1 1
+ 0.205 0 1 cbr 1000 ------- 0 0.0 2.0 2 2
- 0.205 0 1 cbr 1000 ------- 0 0.0 2.0 2 2
+ 0.205 0 1 cbr 24 ------- 0 0.0 2.0 3 3
r 0.2066 0 1 cbr 1000 ------- 0 0.0 2.0 0 0
+ 0.2066 1 2 cbr 1000 ------- 0 0.0 2.0 0 0
- 0.2066 1 2 cbr 1000 ------- 0 0.0 2.0 0 0
- 0.2066 0 1 cbr 24 ------- 0 0.0 2.0 3 3
r 0.206638 0 1 cbr 24 ------- 0 0.0 2.0 1 1
+ 0.206638 1 2 cbr 24 ------- 0 0.0 2.0 1 1
+ 0.21 0 1 cbr 1000 ------- 0 0.0 2.0 4 4
- 0.21 0 1 cbr 1000 ------- 0 0.0 2.0 4 4
+ 0.21 0 1 cbr 24 ------- 0 0.0 2.0 5 5
r 0.2116 0 1 cbr 1000 ------- 0 0.0 2.0 2 2
+ 0.2116 1 2 cbr 1000 ------- 0 0.0 2.0 2 2
- 0.2116 0 1 cbr 24 ------- 0 0.0 2.0 5 5
r 0.211638 0 1 cbr 24 ------- 0 0.0 2.0 3 3
+ 0.211638 1 2 cbr 24 ------- 0 0.0 2.0 3 3
- 0.2146 1 2 cbr 24 ------- 0 0.0 2.0 1 1
- 0.214792 1 2 cbr 1000 ------- 0 0.0 2.0 2 2
+ 0.215 0 1 cbr 1000 ------- 0 0.0 2.0 6 6
- 0.215 0 1 cbr 1000 ------- 0 0.0 2.0 6 6
+ 0.215 0 1 cbr 24 ------- 0 0.0 2.0 7 7
r 0.2166 0 1 cbr 1000 ------- 0 0.0 2.0 4 4
+ 0.2166 1 2 cbr 1000 ------- 0 0.0 2.0 4 4
- 0.2166 0 1 cbr 24 ------- 0 0.0 2.0 7 7
r 0.216638 0 1 cbr 24 ------- 0 0.0 2.0 5 5
+ 0.216638 1 2 cbr 24 ------- 0 0.0 2.0 5 5
r 0.2196 1 2 cbr 1000 ------- 0 0.0 2.0 0 0
r 0.219792 1 2 cbr 24 ------- 0 0.0 2.0 1 1
+ 0.22 0 1 cbr 1000 ------- 0 0.0 2.0 8 8
- 0.22 0 1 cbr 1000 ------- 0 0.0 2.0 8 8
+ 0.22 0 1 cbr 24 ------- 0 0.0 2.0 9 9
r 0.2216 0 1 cbr 1000 ------- 0 0.0 2.0 6 6
+ 0.2216 1 2 cbr 1000 ------- 0 0.0 2.0 6 6
- 0.2216 0 1 cbr 24 ------- 0 0.0 2.0 9 9
r 0.221638 0 1 cbr 24 ------- 0 0.0 2.0 7 7
+ 0.221638 1 2 cbr 24 ------- 0 0.0 2.0 7 7
- 0.222792 1 2 cbr 24 ------- 0 0.0 2.0 3 3
- 0.222984 1 2 cbr 1000 ------- 0 0.0 2.0 4 4
+ 0.225 0 1 cbr 1000 ------- 0 0.0 2.0 10 10
- 0.225 0 1 cbr 1000 ------- 0 0.0 2.0 10 10
+ 0.225 0 1 cbr 24 ------- 0 0.0 2.0 11 11
r 0.2266 0 1 cbr 1000 ------- 0 0.0 2.0 8 8
+ 0.2266 1 2 cbr 1000 ------- 0 0.0 2.0 8 8
- 0.2266 0 1 cbr 24 ------- 0 0.0 2.0 11 11
r 0.226638 0 1 cbr 24 ------- 0 0.0 2.0 9 9
+ 0.226638 1 2 cbr 24 ------- 0 0.0 2.0 9 9
r 0.227792 1 2 cbr 1000 ------- 0 0.0 2.0 2 2
r 0.227984 1 2 cbr 24 ------- 0 0.0 2.0 3 3
+ 0.23 0 1 cbr 1000 ------- 0 0.0 2.0 12 12
- 0.23 0 1 cbr 1000 ------- 0 0.0 2.0 12 12
+ 0.23 0 1 cbr 24 ------- 0 0.0 2.0 13 13
- 0.230984 1 2 cbr 24 ------- 0 0.0 2.0 5 5
- 0.231176 1 2 cbr 1000 ------- 0 0.0 2.0 6 6
r 0.2316 0 1 cbr 1000 ------- 0 0.0 2.0 10 10
+ 0.2316 1 2 cbr 1000 ------- 0 0.0 2.0 10 10
- 0.2316 0 1 cbr 24 ------- 0 0.0 2.0 13 13
r 0.231638 0 1 cbr 24 ------- 0 0.0 2.0 11 11
+ 0.231638 1 2 cbr 24 ------- 0 0.0 2.0 11 11
+ 0.235 0 1 cbr 1000 ------- 0 0.0 2.0 14 14
- 0.235 0 1 cbr 1000 ------- 0 0.0 2.0 14 14
+ 0.235 0 1 cbr 24 ------- 0 0.0 2.0 15 15
r 0.235984 1 2 cbr 1000 ------- 0 0.0 2.0 4 4
r 0.236176 1 2 cbr 24 ------- 0 0.0 2.0 5 5
r 0.2366 0 1 cbr 1000 ------- 0 0.0 2.0 12 12
+ 0.2366 1 2 cbr 1000 ------- 0 0.0 2.0 12 12
- 0.2366 0 1 cbr 24 ------- 0 0.0 2.0 15 15
r 0.236638 0 1 cbr 24 ------- 0 0.0 2.0 13 13
+ 0.236638 1 2 cbr 24 ------- 0 0.0 2.0 13 13
- 0.239176 1 2 cbr 24 ------- 0 0.0 2.0 7 7
- 0.239368 1 2 cbr 1000 ------- 0 0.0 2.0 8 8
+ 0.24 0 1 cbr 1000 ------- 0 0.0 2.0 16 16
- 0.24 0 1 cbr 1000 ------- 0 0.0 2.0 16 16
+ 0.24 0 1 cbr 24 ------- 0 0.0 2.0 17 17
r 0.2416 0 1 cbr 1000 ------- 0 0.0 2.0 14 14
+ 0.2416 1 2 cbr 1000 ------- 0 0.0 2.0 14 14
- 0.2416 0 1 cbr 24 ------- 0 0.0 2.0 17 17
r 0.241638 0 1 cbr 24 ------- 0 0.0 2.0 15 15
+ 0.241638 1 2 cbr 24 ------- 0 0.0 2.0 15 15
r 0.244176 1 2 cbr 1000 ------- 0 0.0 2.0 6 6
r 0.244368 1 2 cbr 24 ------- 0 0.0 2.0 7 7
+ 0.245 0 1 cbr 1000 ------- 0 0.0 2.0 18 18
- 0.245 0 1 cbr 1000 ------- 0 0.0 2.0 18 18
+ 0.245 0 1 cbr 24 ------- 0 0.0 2.0 19 19
r 0.2466 0 1 cbr 1000 ------- 0 0.0 2.0 16 16
+ 0.2466 1 2 cbr 1000 ------- 0 0.0 2.0 16 16
d 0.2466 1 2 cbr 1000 ------- 0 0.0 2.0 16 16
- 0.2466 0 1 cbr 24 ------- 0 0.0 2.0 19 19
r 0.246638 0 1 cbr 24 ------- 0 0.0 2.0 17 17
+ 0.246638 1 2 cbr 24 ------- 0 0.0 2.0 17 17
d 0.246638 1 2 cbr 24 ------- 0 0.0 2.0 17 17
- 0.247368 1 2 cbr 24 ------- 0 0.0 2.0 9 9
- 0.24756 1 2 cbr 1000 ------- 0 0.0 2.0 10 10
+ 0.25 0 1 cbr 1000 ------- 0 0.0 2.0 20 20
- 0.25 0 1 cbr 1000 ------- 0 0.0 2.0 20 20
+ 0.25 0 1 cbr 24 ------- 0 0.0 2.0 21 21
r 0.2516 0 1 cbr 1000 ------- 0 0.0 2.0 18 18
+ 0.2516 1 2 cbr 1000 ------- 0 0.0 2.0 18 18
- 0.2516 0 1 cbr 24 ------- 0 0.0 2.0 21 21
r 0.251638 0 1 cbr 24 ------- 0 0.0 2.0 19 19
+ 0.251638 1 2 cbr 24 ------- 0 0.0 2.0 19 19
r 0.252368 1 2 cbr 1000 ------- 0 0.0 2.0 8 8
r 0.25256 1 2 cbr 24 ------- 0 0.0 2.0 9 9
+ 0.255 0 1 cbr 1000 ------- 0 0.0 2.0 22 22
- 0.255 0 1 cbr 1000 ------- 0 0.0 2.0 22 22
+ 0.255 0 1 cbr 24 ------- 0 0.0 2.0 23 23
- 0.25556 1 2 cbr 24 ------- 0 0.0 2.0 11 11
- 0.255752 1 2 cbr 1000 ------- 0 0.0 2.0 12 12
r 0.2566 0 1 cbr 1000 ------- 0 0.0 2.0 20 20
+ 0.2566 1 2 cbr 1000 ------- 0 0.0 2.0 20 20
- 0.2566 0 1 cbr 24 ------- 0 0.0 2.0 23 23
r 0.256638 0 1 cbr 24 ------- 0 0.0 2.0 21 21
+ 0.256638 1 2 cbr 24 ------- 0 0.0 2.0 21 21
+ 0.26 0 1 cbr 1000 ------- 0 0.0 2.0 24 24
- 0.26 0 1 cbr 1000 ------- 0 0.0 2.0 24 24
+ 0.26 0 1 cbr 24 ------- 0 0.0 2.0 25 25
r 0.26056 1 2 cbr 1000 ------- 0 0.0 2.0 10 10
r 0.260752 1 2 cbr 24 ------- 0 0.0 2.0 11 11
r 0.2616 0 1 cbr 1000 ------- 0 0.0 2.0 22 22
+ 0.2616 1 2 cbr 1000 ------- 0 0.0 2.0 22 22
d 0.2616 1 2 cbr 1000 ------- 0 0.0 2.0 22 22
- 0.2616 0 1 cbr 24 ------- 0 0.0 2.0 25 25
r 0.261638 0 1 cbr 24 ------- 0 0.0 2.0 23 23
+ 0.261638 1 2 cbr 24 ------- 0 0.0 2.0 23 23
d 0.261638 1 2 cbr 24 ------- 0 0.0 2.0 23 23
- 0.263752 1 2 cbr 24 ------- 0 0.0 2.0 13 13
- 0.263944 1 2 cbr 1000 ------- 0 0.0 2.0 14 14
+ 0.265 0 1 cbr 1000 ------- 0 0.0 2.0 26 26
- 0.265 0 1 cbr 1000 ------- 0 0.0 2.0 26 26
+ 0.265 0 1 cbr 24 ------- 0 0.0 2.0 27 27
r 0.2666 0 1 cbr 1000 ------- 0 0.0 2.0 24 24
+ 0.2666 1 2 cbr 1000 ------- 0 0.0 2.0 24 24
- 0.2666 0 1 cbr 24 ------- 0 0.0 2.0 27 27
r 0.266638 0 1 cbr 24 ------- 0 0.0 2.0 25 25
+ 0.266638 1 2 cbr 24 ------- 0 0.0 2.0 25 25
r 0.268752 1 2 cbr 1000 ------- 0 0.0 2.0 12 12
r 0.268944 1 2 cbr 24 ------- 0 0.0 2.0 13 13
+ 0.27 0 1 cbr 1000 ------- 0 0.0 2.0 28 28
- 0.27 0 1 cbr 1000 ------- 0 0.0 2.0 28 28
+ 0.27 0 1 cbr 24 ------- 0 0.0 2.0 29 29
r 0.2716 0 1 cbr 1000 ------- 0 0.0 2.0 26 26
+ 0.2716 1 2 cbr 1000 ------- 0 0.0 2.0 26 26
d 0.2716 1 2 cbr 1000 ------- 0 0.0 2.0 26 26
- 0.2716 0 1 cbr 24 ------- 0 0.0 2.0 29 29
r 0.271638 0 1 cbr 24 ------- 0 0.0 2.0 27 27
+ 0.271638 1 2 cbr 24 ------- 0 0.0 2.0 27 27
d 0.271638 1 2 cbr 24 ------- 0 0.0 2.0 27 27
- 0.271944 1 2 cbr 24 ------- 0 0.0 2.0 15 15
- 0.272136 1 2 cbr 1000 ------- 0 0.0 2.0 18 18
+ 0.275 0 1 cbr 1000 ------- 0 0.0 2.0 30 30
- 0.275 0 1 cbr 1000 ------- 0 0.0 2.0 30 30
+ 0.275 0 1 cbr 24 ------- 0 0.0 2.0 31 31
r 0.2766 0 1 cbr 1000 ------- 0 0.0 2.0 28 28
+ 0.2766 1 2 cbr 1000 ------- 0 0.0 2.0 28 28
- 0.2766 0 1 cbr 24 ------- 0 0.0 2.0 31 31
r 0.276638 0 1 cbr 24 ------- 0 0.0 2.0 29 29
+ 0.276638 1 2 cbr 24 ------- 0 0.0 2.0 29 29
r 0.276944 1 2 cbr 1000 ------- 0 0.0 2.0 14 14
r 0.277136 1 2 cbr 24 ------- 0 0.0 2.0 15 15
+ 0.28 0 1 cbr 1000 ------- 0 0.0 2.0 32 32
- 0.28 0 1 cbr 1000 ------- 0 0.0 2.0 32 32
+ 0.28 0 1 cbr 24 ------- 0 0.0 2.0 33 33
- 0.280136 1 2 cbr 24 ------- 0 0.0 2.0 19 19
- 0.280328 1 2 cbr 1000 ------- 0 0.0 2.0 20 20
r 0.2816 0 1 cbr 1000 ------- 0 0.0 2.0 30 30
+ 0.2816 1 2 cbr 1000 ------- 0 0.0 2.0 30 30
- 0.2816 0 1 cbr 24 ------- 0 0.0 2.0 33 33
r 0.281638 0 1 cbr 24 ------- 0 0.0 2.0 31 31
+ 0.281638 1 2 cbr 24 ------- 0 0.0 2.0 31 31
+ 0.285 0 1 cbr 1000 ------- 0 0.0 2.0 34 34
- 0.285 0 1 cbr 1000 ------- 0 0.0 2.0 34 34
+ 0.285 0 1 cbr 24 ------- 0 0.0 2.0 35 35
r 0.285136 1 2 cbr 1000 ------- 0 0.0 2.0 18 18
r 0.285328 1 2 cbr 24 ------- 0 0.0 2.0 19 19
r 0.2866 0 1 cbr 1000 ------- 0 0.0 2.0 32 32
+ 0.2866 1 2 cbr 1000 ------- 0 0.0 2.0 32 32
d 0.2866 1 2 cbr 1000 ------- 0 0.0 2.0 32 32
- 0.2866 0 1 cbr 24 ------- 0 0.0 2.0 35 35
r 0.286638 0 1 cbr 24 ------- 0 0.0 2.0 33 33
+ 0.286638 1 2 cbr 24 ------- 0 0.0 2.0 33 33
d 0.286638 1 2 cbr 24 ------- 0 0.0 2.0 33 33
- 0.288328 1 2 cbr 24 ------- 0 0.0 2.0 21 21
- 0.28852 1 2 cbr 1000 ------- 0 0.0 2.0 24 24
+ 0.29 0 1 cbr 1000 ------- 0 0.0 2.0 36 36
- 0.29 0 1 cbr 1000 ------- 0 0.0 2.0 36 36
+ 0.29 0 1 cbr 24 ------- 0 0.0 2.0 37 37
r 0.2916 0 1 cbr 1000 ------- 0 0.0 2.0 34 34
+ 0.2916 1 2 cbr 1000 ------- 0 0.0 2.0 34 34
- 0.2916 0 1 cbr 24 ------- 0 0.0 2.0 37 37
r 0.291638 0 1 cbr 24 ------- 0 0.0 2.0 35 35
+ 0.291638 1 2 cbr 24 ------- 0 0.0 2.0 35 35
r 0.293328 1 2 cbr 1000 ------- 0 0.0 2.0 20 20
r 0.29352 1 2 cbr 24 ------- 0 0.0 2.0 21 21
+ 0.295 0 1 cbr 1000 ------- 0 0.0 2.0 38 38
- 0.295 0 1 cbr 1000 ------- 0 0.0 2.0 38 38
+ 0.295 0 1 cbr 24 ------- 0 0.0 2.0 39 39
- 0.29652 1 2 cbr 24 ------- 0 0.0 2.0 25 25
r 0.2966 0 1 cbr 1000 ------- 0 0.0 2.0 36 36
+ 0.2966 1 2 cbr 1000 ------- 0 0.0 2.0 36 36
- 0.2966 0 1 cbr 24 ------- 0 0.0 2.0 39 39
r 0.296638 0 1 cbr 24 ------- 0 0.0 2.0 37 37
+ 0.296638 1 2 cbr 24 ------- 0 0.0 2.0 37 37
d 0.296638 1 2 cbr 24 ------- 0 0.0 2.0 37 37
- 0.296712 1 2 cbr 1000 ------- 0 0.0 2.0 28 28
+ 0.3 0 1 cbr 1000 ------- 0 0.0 2.0 40 40
- 0.3 0 1 cbr 1000 ------- 0 0.0 2.0 40 40
+ 0.3 0 1 cbr 24 ------- 0 0.0 2.0 41 41
r 0.30152 1 2 cbr 1000 ------- 0 0.0 2.0 24 24
r 0.3016 0 1 cbr 1000 ------- 0 0.0 2.0 38 38
+ 0.3016 1 2 cbr 1000 ------- 0 0.0 2.0 38 38
- 0.3016 0 1 cbr 24 ------- 0 0.0 2.0 41 41
r 0.301638 0 1 cbr 24 ------- 0 0.0 2.0 39 39
+ 0.301638 1 2 cbr 24 ------- 0 0.0 2.0 39 39
d 0.301638 1 2 cbr 24 ------- 0 0.0 2.0 39 39
r 0.301712 1 2 cbr 24 ------- 0 0.0 2.0 25 25
- 0.304712 1 2 cbr 24 ------- 0 0.0 2.0 29 29
- 0.304904 1 2 cbr 1000 ------- 0 0.0 2.0 30 30
+ 0.305 0 1 cbr 1000 ------- 0 0.0 2.0 42 42
- 0.305 0 1 cbr 1000 ------- 0 0.0 2.0 42 42
+ 0.305 0 1 cbr 24 ------- 0 0.0 2.0 43 43
r 0.3066 0 1 cbr 1000 ------- 0 0.0 2.0 40 40
+ 0.3066 1 2 cbr 1000 ------- 0 0.0 2.0 40 40
- 0.3066 0 1 cbr 24 ------- 0 0.0 2.0 43 43
r 0.306638 0 1 cbr 24 ------- 0 0.0 2.0 41 41
+ 0.306638 1 2 cbr 24 ------- 0 0.0 2.0 41 41
r 0.309712 1 2 cbr 1000 ------- 0 0.0 2.0 28 28
r 0.309904 1 2 cbr 24 ------- 0 0.0 2.0 29 29
+ 0.31 0 1 cbr 1000 ------- 0 0.0 2.0 44 44
- 0.31 0 1 cbr 1000 ------- 0 0.0 2.0 44 44
+ 0.31 0 1 cbr 24 ------- 0 0.0 2.0 45 45
r 0.3116 0 1 cbr 1000 ------- 0 0.0 2.0 42 42
+ 0.3116 1 2 cbr 1000 ------- 0 0.0 2.0 42 42
d 0.3116 1 2 cbr 1000 ------- 0 0.0 2.0 42 42
- 0.3116 0 1 cbr 24 ------- 0 0.0 2.0 45 45
r 0.311638 0 1 cbr 24 ------- 0 0.0 2.0 43 43
+ 0.311638 1 2 cbr 24 ------- 0 0.0 2.0 43 43
d 0.311638 1 2 cbr 24 ------- 0 0.0 2.0 43 43
- 0.312904 1 2 cbr 24 ------- 0 0.0 2.0 31 31
- 0.313096 1 2 cbr 1000 ------- 0 0.0 2.0 34 34
+ 0.315 0 1 cbr 1000 ------- 0 0.0 2.0 46 46
- 0.315 0 1 cbr 1000 ------- 0 0.0 2.0 46 46
+ 0.315 0 1 cbr 24 ------- 0 0.0 2.0 47 47
r 0.3166 0 1 cbr 1000 ------- 0 0.0 2.0 44 44
+ 0.3166 1 2 cbr 1000 ------- 0 0.0 2.0 44 44
- 0.3166 0 1 cbr 24 ------- 0 0.0 2.0 47 47
r 0.316638 0 1 cbr 24 ------- 0 0.0 2.0 45 45
+ 0.316638 1 2 cbr 24 ------- 0 0.0 2.0 45 45
r 0.317904 1 2 cbr 1000 ------- 0 0.0 2.0 30 30
r 0.318096 1 2 cbr 24 ------- 0 0.0 2.0 31 31
+ 0.32 0 1 cbr 1000 ------- 0 0.0 2.0 48 48
- 0.32 0 1 cbr 1000 ------- 0 0.0 2.0 48 48
+ 0.32 0 1 cbr 24 ------- 0 0.0 2.0 49 49
- 0.321096 1 2 cbr 24 ------- 0 0.0 2.0 35 35
- 0.321288 1 2 cbr 1000 ------- 0 0.0 2.0 36 36
r 0.3216 0 1 cbr 1000 ------- 0 0.0 2.0 46 46
+ 0.3216 1 2 cbr 1000 ------- 0 0.0 2.0 46 46
- 0.3216 0 1 cbr 24 ------- 0 0.0 2.0 49 49
r 0.321638 0 1 cbr 24 ------- 0 0.0 2.0 47 47
+ 0.321638 1 2 cbr 24 ------- 0 0.0 2.0 47 47
+ 0.325 0 1 cbr 1000 ------- 0 0.0 2.0 50 50
- 0.325 0 1 cbr 1000 ------- 0 0.0 2.0 50 50
+ 0.325 0 1 cbr 24 ------- 0 0.0 2.0 51 51
r 0.326096 1 2 cbr 1000 ------- 0 0.0 2.0 34 34
r 0.326288 1 2 cbr 24 ------- 0 0.0 2.0 35 35
r 0.3266 0 1 cbr 1000 ------- 0 0.0 2.0 48 48
+ 0.3266 1 2 cbr 1000 ------- 0 0.0 2.0 48 48
d 0.3266 1 2 cbr 1000 ------- 0 0.0 2.0 48 48
- 0.3266 0 1 cbr 24 ------- 0 0.0 2.0 51 51
r 0.326638 0 1 cbr 24 ------- 0 0.0 2.0 49 49
+ 0.326638 1 2 cbr 24 ------- 0 0.0 2.0 49 49
d 0.326638 1 2 cbr 24 ------- 0 0.0 2.0 49 49
- 0.329288 1 2 cbr 1000 ------- 0 0.0 2.0 38 38
+ 0.33 0 1 cbr 1000 ------- 0 0.0 2.0 52 52
- 0.33 0 1 cbr 1000 ------- 0 0.0 2.0 52 52
+ 0.33 0 1 cbr 24 ------- 0 0.0 2.0 53 53
r 0.3316 0 1 cbr 1000 ------- 0 0.0 2.0 50 50
+ 0.3316 1 2 cbr 1000 ------- 0 0.0 2.0 50 50
- 0.3316 0 1 cbr 24 ------- 0 0.0 2.0 53 53
r 0.331638 0 1 cbr 24 ------- 0 0.0 2.0 51 51
+ 0.331638 1 2 cbr 24 ------- 0 0.0 2.0 51 51
d 0.331638 1 2 cbr 24 ------- 0 0.0 2.0 51 51
r 0.334288 1 2 cbr 1000 ------- 0 0.0 2.0 36 36
+ 0.335 0 1 cbr 1000 ------- 0 0.0 2.0 54 54
- 0.335 0 1 cbr 1000 ------- 0 0.0 2.0 54 54
+ 0.335 0 1 cbr 24 ------- 0 0.0 2.0 55 55
r 0.3366 0 1 cbr 1000 ------- 0 0.0 2.0 52 52
+ 0.3366 1 2 cbr 1000 ------- 0 0.0 2.0 52 52
d 0.3366 1 2 cbr 1000 ------- 0 0.0 2.0 52 52
- 0.3366 0 1 cbr 24 ------- 0 0.0 2.0 55 55
r 0.336638 0 1 cbr 24 ------- 0 0.0 2.0 53 53
+ 0.336638 1 2 cbr 24 ------- 0 0.0 2.0 53 53
d 0.336638 1 2 cbr 24 ------- 0 0.0 2.0 53 53
- 0.337288 1 2 cbr 1000 ------- 0 0.0 2.0 40 40
+ 0.34 0 1 cbr 1000 ------- 0 0.0 2.0 56 56
- 0.34 0 1 cbr 1000 ------- 0 0.0 2.0 56 56
+ 0.34 0 1 cbr 24 ------- 0 0.0 2.0 57 57
r 0.3416 0 1 cbr 1000 ------- 0 0.0 2.0 54 54
+ 0.3416 1 2 cbr 1000 ------- 0 0.0 2.0 54 54
- 0.3416 0 1 cbr 24 ------- 0 0.0 2.0 57 57
r 0.341638 0 1 cbr 24 ------- 0 0.0 2.0 55 55
+ 0.341638 1 2 cbr 24 ------- 0 0.0 2.0 55 55
d 0.341638 1 2 cbr 24 ------- 0 0.0 2.0 55 55
r 0.342288 1 2 cbr 1000 ------- 0 0.0 2.0 38 38
+ 0.345 0 1 cbr 1000 ------- 0 0.0 2.0 58 58
- 0.345 0 1 cbr 1000 ------- 0 0.0 2.0 58 58
+ 0.345 0 1 cbr 24 ------- 0 0.0 2.0 59 59
- 0.345288 1 2 cbr 24 ------- 0 0.0 2.0 41 41
- 0.34548 1 2 cbr 1000 ------- 0 0.0 2.0 44 44
r 0.3466 0 1 cbr 1000 ------- 0 0.0 2.0 56 56
+ 0.3466 1 2 cbr 1000 ------- 0 0.0 2.0 56 56
- 0.3466 0 1 cbr 24 ------- 0 0.0 2.0 59 59
r 0.346638 0 1 cbr 24 ------- 0 0.0 2.0 57 57
+ 0.346638 1 2 cbr 24 ------- 0 0.0 2.0 57 57
+ 0.35 0 1 cbr 1000 ------- 0 0.0 2.0 60 60
- 0.35 0 1 cbr 1000 ------- 0 0.0 2.0 60 60
+ 0.35 0 1 cbr 24 ------- 0 0.0 2.0 61 61
r 0.350288 1 2 cbr 1000 ------- 0 0.0 2.0 40 40
r 0.35048 1 2 cbr 24 ------- 0 0.0 2.0 41 41
r 0.3516 0 1 cbr 1000 ------- 0 0.0 2.0 58 58
+ 0.3516 1 2 cbr 1000 ------- 0 0.0 2.0 58 58
d 0.3516 1 2 cbr 1000 ------- 0 0.0 2.0 58 58
- 0.3516 0 1 cbr 24 ------- 0 0.0 2.0 61 61
r 0.351638 0 1 cbr 24 ------- 0 0.0 2.0 59 59
+ 0.351638 1 2 cbr 24 ------- 0 0.0 2.0 59 59
d 0.351638 1 2 cbr 24 ------- 0 0.0 2.0 59 59
- 0.35348 1 2 cbr 24 ------- 0 0.0 2.0 45 45
- 0.353672 1 2 cbr 1000 ------- 0 0.0 2.0 46 46
+ 0.355 0 1 cbr 1000 ------- 0 0.0 2.0 62 62
- 0.355 0 1 cbr 1000 ------- 0 0.0 2.0 62 62
+ 0.355 0 1 cbr 24 ------- 0 0.0 2.0 63 63
r 0.3566 0 1 cbr 1000 ------- 0 0.0 2.0 60 60
+ 0.3566 1 2 cbr 1000 ------- 0 0.0 2.0 60 60
- 0.3566 0 1 cbr 24 ------- 0 0.0 2.0 63 63
r 0.356638 0 1 cbr 24 ------- 0 0.0 2.0 61 61
+ 0.356638 1 2 cbr 24 ------- 0 0.0 2.0 61 61
r 0.35848 1 2 cbr 1000 ------- 0 0.0 2.0 44 44
r 0.358672 1 2 cbr 24 ------- 0 0.0 2.0 45 45
+ 0.36 0 1 cbr 1000 ------- 0 0.0 2.0 64 64
- 0.36 0 1 cbr 1000 ------- 0 0.0 2.0 64 64
+ 0.36 0 1 cbr 24 ------- 0 0.0 2.0 65 65
r 0.3616 0 1 cbr 1000 ------- 0 0.0 2.0 62 62
+ 0.3616 1 2 cbr 1000 ------- 0 0.0 2.0 62 62
d 0.3616 1 2 cbr 1000 ------- 0 0.0 2.0 62 62
- 0.3616 0 1 cbr 24 ------- 0 0.0 2.0 65 65
r 0.361638 0 1 cbr 24 ------- 0 0.0 2.0 63 63
+ 0.361638 1 2 cbr 24 ------- 0 0.0 2.0 63 63
d 0.361638 1 2 cbr 24 ------- 0 0.0 2.0 63 63
- 0.361672 1 2 cbr 24 ------- 0 0.0 2.0 47 47
- 0.361864 1 2 cbr 1000 ------- 0 0.0 2.0 50 50
+ 0.365 0 1 cbr 1000 ------- 0 0.0 2.0 66 66
- 0.365 0 1 cbr 1000 ------- 0 0.0 2.0 66 66
+ 0.365 0 1 cbr 24 ------- 0 0.0 2.0 67 67
r 0.3666 0 1 cbr 1000 ------- 0 0.0 2.0 64 64
+ 0.3666 1 2 cbr 1000 ------- 0 0.0 2.0 64 64
- 0.3666 0 1 cbr 24 ------- 0 0.0 2.0 67 67
r 0.366638 0 1 cbr 24 ------- 0 0.0 2.0 65 65
+ 0.366638 1 2 cbr 24 ------- 0 0.0 2.0 65 65
r 0.366672 1 2 cbr 1000 ------- 0 0.0 2.0 46 46
r 0.366864 1 2 cbr 24 ------- 0 0.0 2.0 47 47
- 0.369864 1 2 cbr 1000 ------- 0 0.0 2.0 54 54
+ 0.37 0 1 cbr 1000 ------- 0 0.0 2.0 68 68
- 0.37 0 1 cbr 1000 ------- 0 0.0 2.0 68 68
+ 0.37 0 1 cbr 24 ------- 0 0.0 2.0 69 69
r 0.3716 0 1 cbr 1000 ------- 0 0.0 2.0 66 66
+ 0.3716 1 2 cbr 1000 ------- 0 0.0 2.0 66 66
- 0.3716 0 1 cbr 24 ------- 0 0.0 2.0 69 69
r 0.371638 0 1 cbr 24 ------- 0 0.0 2.0 67 67
+ 0.371638 1 2 cbr 24 ------- 0 0.0 2.0 67 67
d 0.371638 1 2 cbr 24 ------- 0 0.0 2.0 67 67
r 0.374864 1 2 cbr 1000 ------- 0 0.0 2.0 50 50
+ 0.375 0 1 cbr 1000 ------- 0 0.0 2.0 70 70
- 0.375 0 1 cbr 1000 ------- 0 0.0 2.0 70 70
+ 0.375 0 1 cbr 24 ------- 0 0.0 2.0 71 71
r 0.3766 0 1 cbr 1000 ------- 0 0.0 2.0 68 68
+ 0.3766 1 2 cbr 1000 ------- 0 0.0 2.0 68 68
d 0.3766 1 2 cbr 1000 ------- 0 0.0 2.0 68 68
- 0.3766 0 1 cbr 24 ------- 0 0.0 2.0 71 71
r 0.376638 0 1 cbr 24 ------- 0 0.0 2.0 69 69
+ 0.376638 1 2 cbr 24 ------- 0 0.0 2.0 69 69
d 0.376638 1 2 cbr 24 ------- 0 0.0 2.0 69 69
- 0.377864 1 2 cbr 1000 ------- 0 0.0 2.0 56 56
+ 0.38 0 1 cbr 1000 ------- 0 0.0 2.0 72 72
- 0.38 0 1 cbr 1000 ------- 0 0.0 2.0 72 72
+ 0.38 0 1 cbr 24 ------- 0 0.0 2.0 73 73
r 0.3816 0 1 cbr 1000 ------- 0 0.0 2.0 70 70
+ 0.3816 1 2 cbr 1000 ------- 0 0.0 2.0 70 70
- 0.3816 0 1 cbr 24 ------- 0 0.0 2.0 73 73
r 0.381638 0 1 cbr 24 ------- 0 0.0 2.0 71 71
+ 0.381638 1 2 cbr 24 ------- 0 0.0 2.0 71 71
d 0.381638 1 2 cbr 24 ------- 0 0.0 2.0 71 71
r 0.382864 1 2 cbr 1000 ------- 0 0.0 2.0 54 54
+ 0.385 0 1 cbr 1000 ------- 0 0.0 2.0 74 74
- 0.385 0 1 cbr 1000 ------- 0 0.0 2.0 74 74
+ 0.385 0 1 cbr 24 ------- 0 0.0 2.0 75 75
- 0.385864 1 2 cbr 24 ------- 0 0.0 2.0 57 57
- 0.386056 1 2 cbr 1000 ------- 0 0.0 2.0 60 60
r 0.3866 0 1 cbr 1000 ------- 0 0.0 2.0 72 72
+ 0.3866 1 2 cbr 1000 ------- 0 0.0 2.0 72 72
- 0.3866 0 1 cbr 24 ------- 0 0.0 2.0 75 75
r 0.386638 0 1 cbr 24 ------- 0 0.0 2.0 73 73
+ 0.386638 1 2 cbr 24 ------- 0 0.0 2.0 73 73
+ 0.39 0 1 cbr 1000 ------- 0 0.0 2.0 76 76
- 0.39 0 1 cbr 1000 ------- 0 0.0 2.0 76 76
+ 0.39 0 1 cbr 24 ------- 0 0.0 2.0 77 77
r 0.390864 1 2 cbr 1000 ------- 0 0.0 2.0 56 56
r 0.391056 1 2 cbr 24 ------- 0 0.0 2.0 57 57
r 0.3916 0 1 cbr 1000 ------- 0 0.0 2.0 74 74
+ 0.3916 1 2 cbr 1000 ------- 0 0.0 2.0 74 74
d 0.3916 1 2 cbr 1000 ------- 0 0.0 2.0 74 74
- 0.3916 0 1 cbr 24 ------- 0 0.0 2.0 77 77
r 0.391638 0 1 cbr 24 ------- 0 0.0 2.0 75 75
+ 0.391638 1 2 cbr 24 ------- 0 0.0 2.0 75 75
d 0.391638 1 2 cbr 24 ------- 0 0.0 2.0 75 75
- 0.394056 1 2 cbr 24 ------- 0 0.0 2.0 61 61
- 0.394248 1 2 cbr 1000 ------- 0 0.0 2.0 64 64
+ 0.395 0 1 cbr 1000 ------- 0 0.0 2.0 78 78
- 0.395 0 1 cbr 1000 ------- 0 0.0 2.0 78 78
+ 0.395 0 1 cbr 24 ------- 0 0.0 2.0 79 79
r 0.3966 0 1 cbr 1000 ------- 0 0.0 2.0 76 76
+ 0.3966 1 2 cbr 1000 ------- 0 0.0 2.0 76 76
- 0.3966 0 1 cbr 24 ------- 0 0.0 2.0 79 79
r 0.396638 0 1 cbr 24 ------- 0 0.0 2.0 77 77
+ 0.396638 1 2 cbr 24 ------- 0 0.0 2.0 77 77
r 0.399056 1 2 cbr 1000 ------- 0 0.0 2.0 60 60
r 0.399248 1 2 cbr 24 ------- 0 0.0 2.0 61 61
+ 0.4 0 1 cbr 1000 ------- 0 0.0 2.0 80 80
- 0.4 0 1 cbr 1000 ------- 0 0.0 2.0 80 80
+ 0.4 0 1 cbr 24 ------- 0 0.0 2.0 81 81
r 0.4016 0 1 cbr 1000 ------- 0 0.0 2.0 78 78
+ 0.4016 1 2 cbr 1000 ------- 0 0.0 2.0 78 78
d 0.4016 1 2 cbr 1000 ------- 0 0.0 2.0 78 78
- 0.4016 0 1 cbr 24 ------- 0 0.0 2.0 81 81
r 0.401638 0 1 cbr 24 ------- 0 0.0 2.0 79 79
+ 0.401638 1 2 cbr 24 ------- 0 0.0 2.0 79 79
d 0.401638 1 2 cbr 24 ------- 0 0.0 2.0 79 79
- 0.402248 1 2 cbr 24 ------- 0 0.0 2.0 65 65
- 0.40244 1 2 cbr 1000 ------- 0 0.0 2.0 66 66
+ 0.405 0 1 cbr 1000 ------- 0 0.0 2.0 82 82
- 0.405 0 1 cbr 1000 ------- 0 0.0 2.0 82 82
+ 0.405 0 1 cbr 24 ------- 0 0.0 2.0 83 83
r 0.4066 0 1 cbr 1000 ------- 0 0.0 2.0 80 80
+ 0.4066 1 2 cbr 1000 ------- 0 0.0 2.0 80 80
- 0.4066 0 1 cbr 24 ------- 0 0.0 2.0 83 83
r 0.406638 0 1 cbr 24 ------- 0 0.0 2.0 81 81
+ 0.406638 1 2 cbr 24 ------- 0 0.0 2.0 81 81
r 0.407248 1 2 cbr 1000 ------- 0 0.0 2.0 64 64
r 0.40744 1 2 cbr 24 ------- 0 0.0 2.0 65 65
+ 0.41 0 1 cbr 1000 ------- 0 0.0 2.0 84 84
- 0.41 0 1 cbr 1000 ------- 0 0.0 2.0 84 84
+ 0.41 0 1 cbr 24 ------- 0 0.0 2.0 85 85
- 0.41044 1 2 cbr 1000 ------- 0 0.0 2.0 70 70
r 0.4116 0 1 cbr 1000 ------- 0 0.0 2.0 82 82
+ 0.4116 1 2 cbr 1000 ------- 0 0.0 2.0 82 82
- 0.4116 0 1 cbr 24 ------- 0 0.0 2.0 85 85
r 0.411638 0 1 cbr 24 ------- 0 0.0 2.0 83 83
+ 0.411638 1 2 cbr 24 ------- 0 0.0 2.0 83 83
d 0.411638 1 2 cbr 24 ------- 0 0.0 2.0 83 83
+ 0.415 0 1 cbr 1000 ------- 0 0.0 2.0 86 86
- 0.415 0 1 cbr 1000 ------- 0 0.0 2.0 86 86
+ 0.415 0 1 cbr 24 ------- 0 0.0 2.0 87 87
r 0.41544 1 2 cbr 1000 ------- 0 0.0 2.0 66 66
r 0.4166 0 1 cbr 1000 ------- 0 0.0 2.0 84 84
+ 0.4166 1 2 cbr 1000 ------- 0 0.0 2.0 84 84
d 0.4166 1 2 cbr 1000 ------- 0 0.0 2.0 84 84
- 0.4166 0 1 cbr 24 ------- 0 0.0 2.0 87 87
r 0.416638 0 1 cbr 24 ------- 0 0.0 2.0 85 85
+ 0.416638 1 2 cbr 24 ------- 0 0.0 2.0 85 85
d 0.416638 1 2 cbr 24 ------- 0 0.0 2.0 85 85
- 0.41844 1 2 cbr 1000 ------- 0 0.0 2.0 72 72
+ 0.42 0 1 cbr 1000 ------- 0 0.0 2.0 88 88
- 0.42 0 1 cbr 1000 ------- 0 0.0 2.0 88 88
+ 0.42 0 1 cbr 24 ------- 0 0.0 2.0 89 89
r 0.4216 0 1 cbr 1000 ------- 0 0.0 2.0 86 86
+ 0.4216 1 2 cbr 1000 ------- 0 0.0 2.0 86 86
- 0.4216 0 1 cbr 24 ------- 0 0.0 2.0 89 89
r 0.421638 0 1 cbr 24 ------- 0 0.0 2.0 87 87
+ 0.421638 1 2 cbr 24 ------- 0 0.0 2.0 87 87
d 0.421638 1 2 cbr 24 ------- 0 0.0 2.0 87 87
r 0.42344 1 2 cbr 1000 ------- 0 0.0 2.0 70 70
+ 0.425 0 1 cbr 1000 ------- 0 0.0 2.0 90 90
- 0.425 0 1 cbr 1000 ------- 0 0.0 2.0 90 90
+ 0.425 0 1 cbr 24 ------- 0 0.0 2.0 91 91
- 0.42644 1 2 cbr 24 ------- 0 0.0 2.0 73 73
r 0.4266 0 1 cbr 1000 ------- 0 0.0 2.0 88 88
+ 0.4266 1 2 cbr 1000 ------- 0 0.0 2.0 88 88
- 0.4266 0 1 cbr 24 ------- 0 0.0 2.0 91 91
- 0.426632 1 2 cbr 1000 ------- 0 0.0 2.0 76 76
r 0.426638 0 1 cbr 24 ------- 0 0.0 2.0 89 89
+ 0.426638 1 2 cbr 24 ------- 0 0.0 2.0 89 89
+ 0.43 0 1 cbr 1000 ------- 0 0.0 2.0 92 92
- 0.43 0 1 cbr 1000 ------- 0 0.0 2.0 92 92
+ 0.43 0 1 cbr 24 ------- 0 0.0 2.0 93 93
r 0.43144 1 2 cbr 1000 ------- 0 0.0 2.0 72 72
r 0.4316 0 1 cbr 1000 ------- 0 0.0 2.0 90 90
+ 0.4316 1 2 cbr 1000 ------- 0 0.0 2.0 90 90
d 0.4316 1 2 cbr 1000 ------- 0 0.0 2.0 90 90
- 0.4316 0 1 cbr 24 ------- 0 0.0 2.0 93 93
r 0.431632 1 2 cbr 24 ------- 0 0.0 2.0 73 73
r 0.431638 0 1 cbr 24 ------- 0 0.0 2.0 91 91
+ 0.431638 1 2 cbr 24 ------- 0 0.0 2.0 91 91
d 0.431638 1 2 cbr 24 ------- 0 0.0 2.0 91 91
- 0.434632 1 2 cbr 24 ------- 0 0.0 2.0 77 77
- 0.434824 1 2 cbr 1000 ------- 0 0.0 2.0 80 80
+ 0.435 0 1 cbr 1000 ------- 0 0.0 2.0 94 94
- 0.435 0 1 cbr 1000 ------- 0 0.0 2.0 94 94
+ 0.435 0 1 cbr 24 ------- 0 0.0 2.0 95 95
r 0.4366 0 1 cbr 1000 ------- 0 0.0 2.0 92 92
+ 0.4366 1 2 cbr 1000 ------- 0 0.0 2.0 92 92
- 0.4366 0 1 cbr 24 ------- 0 0.0 2.0 95 95
r 0.436638 0 1 cbr 24 ------- 0 0.0 2.0 93 93
+ 0.436638 1 2 cbr 24 ------- 0 0.0 2.0 93 93
r 0.439632 1 2 cbr 1000 ------- 0 0.0 2.0 76 76
r 0.439824 1 2 cbr 24 ------- 0 0.0 2.0 77 77
+ 0.44 0 1 cbr 1000 ------- 0 0.0 2.0 96 96
- 0.44 0 1 cbr 1000 ------- 0 0.0 2.0 96 96
+ 0.44 0 1 cbr 24 ------- 0 0.0 2.0 97 97
r 0.4416 0 1 cbr 1000 ------- 0 0.0 2.0 94 94
+ 0.4416 1 2 cbr 1000 ------- 0 0.0 2.0 94 94
d 0.4416 1 2 cbr 1000 ------- 0 0.0 2.0 94 94
- 0.4416 0 1 cbr 24 ------- 0 0.0 2.0 97 97
r 0.441638 0 1 cbr 24 ------- 0 0.0 2.0 95 95
+ 0.441638 1 2 cbr 24 ------- 0 0.0 2.0 95 95
d 0.441638 1 2 cbr 24 ------- 0 0.0 2.0 95 95
- 0.442824 1 2 cbr 24 ------- 0 0.0 2.0 81 81
- 0.443016 1 2 cbr 1000 ------- 0 0.0 2.0 82 82
+ 0.445 0 1 cbr 1000 ------- 0 0.0 2.0 98 98
- 0.445 0 1 cbr 1000 ------- 0 0.0 2.0 98 98
+ 0.445 0 1 cbr 24 ------- 0 0.0 2.0 99 99
r 0.4466 0 1 cbr 1000 ------- 0 0.0 2.0 96 96
+ 0.4466 1 2 cbr 1000 ------- 0 0.0 2.0 96 96
- 0.4466 0 1 cbr 24 ------- 0 0.0 2.0 99 99
r 0.446638 0 1 cbr 24 ------- 0 0.0 2.0 97 97
+ 0.446638 1 2 cbr 24 ------- 0 0.0 2.0 97 97
r 0.447824 1 2 cbr 1000 ------- 0 0.0 2.0 80 80
r 0.448016 1 2 cbr 24 ------- 0 0.0 2.0 81 81
+ 0.45 0 1 cbr 1000 ------- 0 0.0 2.0 100 100
- 0.45 0 1 cbr 1000 ------- 0 0.0 2.0 100 100
+ 0.45 0 1 cbr 24 ------- 0 0.0 2.0 101 101
- 0.451016 1 2 cbr 1000 ------- 0 0.0 2.0 86 86
r 0.4516 0 1 cbr 1000 ------- 0 0.0 2.0 98 98
+ 0.4516 1 2 cbr 1000 ------- 0 0.0 2.0 98 98
- 0.4516 0 1 cbr 24 ------- 0 0.0 2.0 101 101
r 0.451638 0 1 cbr 24 ------- 0 0.0 2.0 99 99
+ 0.451638 1 2 cbr 24 ------- 0 0.0 2.0 99 99
d 0.451638 1 2 cbr 24 ------- 0 0.0 2.0 99 99
+ 0.455 0 1 cbr 1000 ------- 0 0.0 2.0 102 102
- 0.455 0 1 cbr 1000 ------- 0 0.0 2.0 102 102
+ 0.455 0 1 cbr 24 ------- 0 0.0 2.0 103 103
r 0.456016 1 2 cbr 1000 ------- 0 0.0 2.0 82 82
r 0.4566 0 1 cbr 1000 ------- 0 0.0 2.0 100 100
+ 0.4566 1 2 cbr 1000 ------- 0 0.0 2.0 100 100
d 0.4566 1 2 cbr 1000 ------- 0 0.0 2.0 100 100
- 0.4566 0 1 cbr 24 ------- 0 0.0 2.0 103 103
r 0.456638 0 1 cbr 24 ------- 0 0.0 2.0 101 101
+ 0.456638 1 2 cbr 24 ------- 0 0.0 2.0 101 101
d 0.456638 1 2 cbr 24 ------- 0 0.0 2.0 101 101
- 0.459016 1 2 cbr 1000 ------- 0 0.0 2.0 88 88
+ 0.46 0 1 cbr 1000 ------- 0 0.0 2.0 104 104
- 0.46 0 1 cbr 1000 ------- 0 0.0 2.0 104 104
+ 0.46 0 1 cbr 24 ------- 0 0.0 2.0 105 105
r 0.4616 0 1 cbr 1000 ------- 0 0.0 2.0 102 102
+ 0.4616 1 2 cbr 1000 ------- 0 0.0 2.0 102 102
- 0.4616 0 1 cbr 24 ------- 0 0.0 2.0 105 105
r 0.461638 0 1 cbr 24 ------- 0 0.0 2.0 103 103
+ 0.461638 1 2 cbr 24 ------- 0 0.0 2.0 103 103
d 0.461638 1 2 cbr 24 ------- 0 0.0 2.0 103 103
r 0.464016 1 2 cbr 1000 ------- 0 0.0 2.0 86 86
+ 0.465 0 1 cbr 1000 ------- 0 0.0 2.0 106 106
- 0.465 0 1 cbr 1000 ------- 0 0.0 2.0 106 106
+ 0.465 0 1 cbr 24 ------- 0 0.0 2.0 107 107
r 0.4666 0 1 cbr 1000 ------- 0 0.0 2.0 104 104
+ 0.4666 1 2 cbr 1000 ------- 0 0.0 2.0 104 104
d 0.4666 1 2 cbr 1000 ------- 0 0.0 2.0 104 104
- 0.4666 0 1 cbr 24 ------- 0 0.0 2.0 107 107
r 0.466638 0 1 cbr 24 ------- 0 0.0 2.0 105 105
+ 0.466638 1 2 cbr 24 ------- 0 0.0 2.0 105 105
d 0.466638 1 2 cbr 24 ------- 0 0.0 2.0 105 105
- 0.467016 1 2 cbr 24 ------- 0 0.0 2.0 89 89
- 0.467208 1 2 cbr 1000 ------- 0 0.0 2.0 92 92
+ 0.47 0 1 cbr 1000 ------- 0 0.0 2.0 108 108
- 0.47 0 1 cbr 1000 ------- 0 0.0 2.0 108 108
+ 0.47 0 1 cbr 24 ------- 0 0.0 2.0 109 109
r 0.4716 0 1 cbr 1000 ------- 0 0.0 2.0 106 106
+ 0.4716 1 2 cbr 1000 ------- 0 0.0 2.0 106 106
- 0.4716 0 1 cbr 24 ------- 0 0.0 2.0 109 109
r 0.471638 0 1 cbr 24 ------- 0 0.0 2.0 107 107
+ 0.471638 1 2 cbr 24 ------- 0 0.0 2.0 107 107
r 0.472016 1 2 cbr 1000 ------- 0 0.0 2.0 88 88
r 0.472208 1 2 cbr 24 ------- 0 0.0 2.0 89 89
+ 0.475 0 1 cbr 1000 ------- 0 0.0 2.0 110 110
- 0.475 0 1 cbr 1000 ------- 0 0.0 2.0 110 110
+ 0.475 0 1 cbr 24 ------- 0 0.0 2.0 111 111
- 0.475208 1 2 cbr 24 ------- 0 0.0 2.0 93 93
- 0.4754 1 2 cbr 1000 ------- 0 0.0 2.0 96 96
r 0.4766 0 1 cbr 1000 ------- 0 0.0 2.0 108 108
+ 0.4766 1 2 cbr 1000 ------- 0 0.0 2.0 108 108
- 0.4766 0 1 cbr 24 ------- 0 0.0 2.0 111 111
r 0.476638 0 1 cbr 24 ------- 0 0.0 2.0 109 109
+ 0.476638 1 2 cbr 24 ------- 0 0.0 2.0 109 109
+ 0.48 0 1 cbr 1000 ------- 0 0.0 2.0 112 112
- 0.48 0 1 cbr 1000 ------- 0 0.0 2.0 112 112
+ 0.48 0 1 cbr 24 ------- 0 0.0 2.0 113 113
r 0.480208 1 2 cbr 1000 ------- 0 0.0 2.0 92 92
r 0.4804 1 2 cbr 24 ------- 0 0.0 2.0 93 93
r 0.4816 0 1 cbr 1000 ------- 0 0.0 2.0 110 110
+ 0.4816 1 2 cbr 1000 ------- 0 0.0 2.0 110 110
d 0.4816 1 2 cbr 1000 ------- 0 0.0 2.0 110 110
- 0.4816 0 1 cbr 24 ------- 0 0.0 2.0 113 113
r 0.481638 0 1 cbr 24 ------- 0 0.0 2.0 111 111
+ 0.481638 1 2 cbr 24 ------- 0 0.0 2.0 111 111
d 0.481638 1 2 cbr 24 ------- 0 0.0 2.0 111 111
- 0.4834 1 2 cbr 24 ------- 0 0.0 2.0 97 97
- 0.483592 1 2 cbr 1000 ------- 0 0.0 2.0 98 98
+ 0.485 0 1 cbr 1000 ------- 0 0.0 2.0 114 114
- 0.485 0 1 cbr 1000 ------- 0 0.0 2.0 114 114
+ 0.485 0 1 cbr 24 ------- 0 0.0 2.0 115 115
r 0.4866 0 1 cbr 1000 ------- 0 0.0 2.0 112 112
+ 0.4866 1 2 cbr 1000 ------- 0 0.0 2.0 112 112
- 0.4866 0 1 cbr 24 ------- 0 0.0 2.0 115 115
r 0.486638 0 1 cbr 24 ------- 0 0.0 2.0 113 113
+ 0.486638 1 2 cbr 24 ------- 0 0.0 2.0 113 113
r 0.4884 1 2 cbr 1000 ------- 0 0.0 2.0 96 96
r 0.488592 1 2 cbr 24 ------- 0 0.0 2.0 97 97
+ 0.49 0 1 cbr 1000 ------- 0 0.0 2.0 116 116
- 0.49 0 1 cbr 1000 ------- 0 0.0 2.0 116 116
+ 0.49 0 1 cbr 24 ------- 0 0.0 2.0 117 117
- 0.491592 1 2 cbr 1000 ------- 0 0.0 2.0 102 102
r 0.4916 0 1 cbr 1000 ------- 0 0.0 2.0 114 114
+ 0.4916 1 2 cbr 1000 ------- 0 0.0 2.0 114 114
- 0.4916 0 1 cbr 24 ------- 0 0.0 2.0 117 117
r 0.491638 0 1 cbr 24 ------- 0 0.0 2.0 115 115
+ 0.491638 1 2 cbr 24 ------- 0 0.0 2.0 115 115
d 0.491638 1 2 cbr 24 ------- 0 0.0 2.0 115 115
+ 0.495 0 1 cbr 1000 ------- 0 0.0 2.0 118 118
- 0.495 0 1 cbr 1000 ------- 0 0.0 2.0 118 118
+ 0.495 0 1 cbr 24 ------- 0 0.0 2.0 119 119
r 0.496592 1 2 cbr 1000 ------- 0 0.0 2.0 98 98
r 0.4966 0 1 cbr 1000 ------- 0 0.0 2.0 116 116
+ 0.4966 1 2 cbr 1000 ------- 0 0.0 2.0 116 116
d 0.4966 1 2 cbr 1000 ------- 0 0.0 2.0 116 116
- 0.4966 0 1 cbr 24 ------- 0 0.0 2.0 119 119
r 0.496638 0 1 cbr 24 ------- 0 0.0 2.0 117 117
+ 0.496638 1 2 cbr 24 ------- 0 0.0 2.0 117 117
d 0.496638 1 2 cbr 24 ------- 0 0.0 2.0 117 117
- 0.499592 1 2 cbr 1000 ------- 0 0.0 2.0 106 106
+ 0.5 0 1 cbr 1000 ------- 0 0.0 2.0 120 120
- 0.5 0 1 cbr 1000 ------- 0 0.0 2.0 120 120
+ 0.5 0 1 cbr 24 ------- 0 0.0 2.0 121 121
r 0.5016 0 1 cbr 1000 ------- 0 0.0 2.0 118 118
+ 0.5016 1 2 cbr 1000 ------- 0 0.0 2.0 118 118
- 0.5016 0 1 cbr 24 ------- 0 0.0 2.0 121 121
r 0.501638 0 1 cbr 24 ------- 0 0.0 2.0 119 119
+ 0.501638 1 2 cbr 24 ------- 0 0.0 2.0 119 119
d 0.501638 1 2 cbr 24 ------- 0 0.0 2.0 119 119
r 0.504592 1 2 cbr 1000 ------- 0 0.0 2.0 102 102