V -t * -v 1.0a5 -a 0
A -t * -n 1 -p 0 -o 0x7fffffff -c 30 -a 1
A -t * -h 1 -m 1073741823 -s 0
c -t * -i 0 -n Blue
n -t * -a 0 -s 0 -S UP -v circle -c black -i black
n -t * -a 1 -s 1 -S UP -v circle -c black -i black
n -t * -a 2 -s 2 -S UP -v circle -c black -i black
l -t * -s 0 -d 1 -S UP -r 5000000 -D 0.0050000000000000001 -c black
l -t * -s 1 -d 2 -S UP -r 1000000 -D 0.0050000000000000001 -c black
+ -t 0.2 -s 0 -d 1 -p cbr -e 1000 -c 0 -i 0 -a 0 -x {0.0 2.0 0 ------- null}
- -t 0.2 -s 0 -d 1 -p cbr -e 1000 -c 0 -i 0 -a 0 -x {0.0 2.0 0 ------- null}
h -t 0.2 -s 0 -d 1 -p cbr -e 1000 -c 0 -i 0 -a 0 -x {0.0 2.0 -1 ------- null}
+ -t 0.2 -s 0 -d 1 -p cbr -e 24 -c 0 -i 1 -a 0 -x {0.0 2.0 1 ------- null}
- -t 0.2016 -s 0 -d 1 -p cbr -e 24 -c 0 -i 1 -a 0 -x {0.0 2.0 1 ------- null}
h -t 0.2016 -s 0 -d 1 -p cbr -e 24 -c 0 -i 1 -a 0 -x {0.0 2.0 -1 ------- null}
+ -t 0.205 -s 0 -d 1 -p cbr -e 1000 -c 0 -i 2 -a 0 -x {0.0 2.0 2 ------- null}
- -t 0.205 -s 0 -d 1 -p cbr -e 1000 -c 0 -i 2 -a 0 -x {0.0 2.0 2 ------- null}
h -t 0.205 -s 0 -d 1 -p cbr -e 1000 -c 0 -i 2 -a 0 -x {0.0 2.0 -1 ------- null}
+ -t 0.205 -s 0 -d 1 -p cbr -e 24 -c 0 -i 3 -a 0 -x {0.0 2.0 3 ------- null}
r -t 0.2066 -s 0 -d 1 -p cbr -e 1000 -c 0 -i 0 -a 0 -x {0.0 2.0 0 ------- null}
+ -t 0.2066 -s 1 -d 2 -p cbr -e 1000 -c 0 -i 0 -a 0 -x {0.0 2.0 0 ------- null}
- -t 0.2066 -s 1 -d 2 -p cbr -e 1000 -c 0 -i 0 -a 0 -x {0.0 2.0 0 ------- null}
h -t 0.2066 -s 1 -d 2 -p cbr -e 1000 -c 0 -i 0 -a 0 -x {0.0 2.0 -1 ------- null}
- -t 0.2066 -s 0 -d 1 -p cbr -e 24 -c 0 -i 3 -a 0 -x {0.0 2.0 3 ------- null}
h -t 0.2066 -s 0 -d 1 -p cbr -e 24 -c 0 -i 3 -a 0 -x {0.0 2.0 -1 ------- null}
r -t 0.2066384 -s 0 -d 1 -p cbr -e 24 -c 0 -i 1 -a 0 -x {0.0 2.0 1 ------- null}
+ -t 0.2066384 -s 1 -d 2 -p cbr -e 24 -c 0 -i 1 -a 0 -x {0.0 2.0 1 ------- null}
+ -t 0.21 -s 0 -d 1 -p cbr -e 1000 -c 0 -i 4 -a 0 -x {0.0 2.0 4 ------- null}
- -t 0.21 -s 0 -d 1 -p cbr -e 1000 -c 0 -i 4 -a 0 -x {0.0 2.0 4 ------- null}
h -t 0.21 -s 0 -d 1 -p cbr -e 1000 -c 0 -i 4 -a 0 -x {0.0 2.0 -1 ------- null}
+ -t 0.21 -s 0 -d 1 -p cbr -e 24 -c 0 -i 5 -a 0 -x {0.0 2.0 5 ------- null}
r -t 0.2116 -s 0 -d 1 -p cbr -e 1000 -c 0 -i 2 -a 0 -x {0.0 2.0 2 ------- null}
+ -t 0.2116 -s 1 -d 2 -p cbr -e 1000 -c 0 -i 2 -a 0 -x {0.0 2.0 2 ------- null}
- -t 0.2116 -s 0 -d 1 -p cbr -e 24 -c 0 -i 5 -a 0 -x {0.0 2.0 5 ------- null}
h -t 0.2116 -s 0 -d 1 -p cbr -e 24 -c 0 -i 5 -a 0 -x {0.0 2.0 -1 ------- null}
r -t 0.2116384 -s 0 -d 1 -p cbr -e 24 -c 0 -i 3 -a 0 -x {0.0 2.0 3 ------- null}
+ -t 0.2116384 -s 1 -d 2 -p cbr -e 24 -c 0 -i 3 -a 0 -x {0.0 2.0 3 ------- null}
- -t 0.2146 -s 1 -d 2 -p cbr -e 24 -c 0 -i 1 -a 0 -x {0.0 2.0 1 ------- null}
h -t 0.2146 -s 1 -d 2 -p cbr -e 24 -c 0 -i 1 -a 0 -x {0.0 2.0 -1 ------- null}
- -t 0.214792 -s 1 -d 2 -p cbr -e 1000 -c 0 -i 2 -a 0 -x {0.0 2.0 2 ------- null}
h -t 0.214792 -s 1 -d 2 -p cbr -e 1000 -c 0 -i 2 -a 0 -x {0.0 2.0 -1 ------- null}
+ -t 0.215 -s 0 -d 1 -p cbr -e 1000 -c 0 -i 6 -a 0 -x {0.0 2.0 6 ------- null}
- -t 0.215 -s 0 -d 1 -p cbr -e 1000 -c 0 -i 6 -a 0 -x {0.0 2.0 6 ------- null}
h -t 0.215 -s 0 -d 1 -p cbr -e 1000 -c 0 -i 6 -a 0 -x {0.0 2.0 -1 ------- null}
+ -t 0.215 -s 0 -d 1 -p cbr -e 24 -c 0 -i 7 -a 0 -x {0.0 2.0 7 ------- null}
r -t 0.2166 -s 0 -d 1 -p cbr -e 1000 -c 0 -i 4 -a 0 -x {0.0 2.0 4 ------- null}
+ -t 0.2166 -s 1 -d 2 -p cbr -e 1000 -c 0 -i 4 -a 0 -x {0.0 2.0 4 ------- null}
- -t 0.2166 -s 0 -d 1 -p cbr -e 24 -c 0 -i 7 -a 0 -x {0.0 2.0 7 ------- null}
h -t 0.2166 -s 0 -d 1 -p cbr -e 24 -c 0 -i 7 -a 0 -x {0.0 2.0 -1 ------- null}
r -t 0.2166384 -s 0 -d 1 -p cbr -e 24 -c 0 -i 5 -a 0 -x {0.0 2.0 5 ------- null}
+ -t 0.2166384 -s 1 -d 2 -p cbr -e 24 -c 0 -i 5 -a 0 -x {0.0 2.0 5 ------- null}
r -t 0.2196 -s 1 -d 2 -p cbr -e 1000 -c 0 -i 0 -a 0 -x {0.0 2.0 0 ------- null}
r -t 0.219792 -s 1 -d 2 -p cbr -e 24 -c 0 -i 1 -a 0 -x {0.0 2.0 1 ------- null}
+ -t 0.22 -s 0 -d 1 -p cbr -e 1000 -c 0 -i 8 -a 0 -x {0.0 2.0 8 ------- null}
- -t 0.22 -s 0 -d 1 -p cbr -e 1000 -c 0 -i 8 -a 0 -x {0.0 2.0 8 ------- null}
h -t 0.22 -s 0 -d 1 -p cbr -e 1000 -c 0 -i 8 -a 0 -x {0.0 2.0 -1 ------- null}
+ -t 0.22 -s 0 -d 1 -p cbr -e 24 -c 0 -i 9 -a 0 -x {0.0 2.0 9 ------- null}
r -t 0.2216 -s 0 -d 1 -p cbr -e 1000 -c 0 -i 6 -a 0 -x {0.0 2.0 6 ------- null}
+ -t 0.2216 -s 1 -d 2 -p cbr -e 1000 -c 0 -i 6 -a 0 -x {0.0 2.0 6 ------- null}
- -t 0.2216 -s 0 -d 1 -p cbr -e 24 -c 0 -i 9 -a 0 -x {0.0 2.0 9 ------- null}
h -t 0.2216 -s 0 -d 1 -p cbr -e 24 -c 0 -i 9 -a 0 -x {0.0 2.0 -1 ------- null}
r -t 0.2216384 -s 0 -d 1 -p cbr -e 24 -c 0 -i 7 -a 0 -x {0.0 2.0 7 ------- null}
+ -t 0.2216384 -s 1 -d 2 -p cbr -e 24 -c 0 -i 7 -a 0 -x {0.0 2.0 7 ------- null}
- -t 0.222792 -s 1 -d 2 -p cbr -e 24 -c 0 -i 3 -a 0 -x {0.0 2.0 3 ------- null}
h -t 0.222792 -s 1 -d 2 -p cbr -e 24 -c 0 -i 3 -a 0 -x {0.0 2.0 -1 ------- null}
- -t 0.222984 -s 1 -d 2 -p cbr -e 1000 -c 0 -i 4 -a 0 -x {0.0 2.0 4 ------- null}
h -t 0.222984 -s 1 -d 2 -p cbr -e 1000 -c 0 -i 4 -a 0 -x {0.0 2.0 -1 ------- null}
+ -t 0.225 -s 0 -d 1 -p cbr -e 1000 -c 0 -i 10 -a 0 -x {0.0 2.0 10 ------- null}
- -t 0.225 -s 0 -d 1 -p cbr -e 1000 -c 0 -i 10 -a 0 -x {0.0 2.0 10 ------- null}
h -t 0.225 -s 0 -d 1 -p cbr -e 1000 -c 0 -i 10 -a 0 -x {0.0 2.0 -1 ------- null}
+ -t 0.225 -s 0 -d 1 -p cbr -e 24 -c 0 -i 11 -a 0 -x {0.0 2.0 11 ------- null}
r -t 0.2266 -s 0 -d 1 -p cbr -e 1000 -c 0 -i 8 -a 0 -x {0.0 2.0 8 ------- null}
+ -t 0.2266 -s 1 -d 2 -p cbr -e 1000 -c 0 -i 8 -a 0 -x {0.0 2.0 8 ------- null}
- -t 0.2266 -s 0 -d 1 -p cbr -e 24 -c 0 -i 11 -a 0 -x {0.0 2.0 11 ------- null}
h -t 0.2266 -s 0 -d 1 -p cbr -e 24 -c 0 -i 11 -a 0 -x {0.0 2.0 -1 ------- null}
r -t 0.2266384 -s 0 -d 1 -p cbr -e 24 -c 0 -i 9 -a 0 -x {0.0 2.0 9 ------- null}
+ -t 0.2266384 -s 1 -d 2 -p cbr -e 24 -c 0 -i 9 -a 0 -x {0.0 2.0 9 ------- null}
r -t 0.227792 -s 1 -d 2 -p cbr -e 1000 -c 0 -i 2 -a 0 -x {0.0 2.0 2 ------- null}
r -t 0.227984 -s 1 -d 2 -p cbr -e 24 -c 0 -i 3 -a 0 -x {0.0 2.0 3 ------- null}
+ -t 0.23 -s 0 -d 1 -p cbr -e 1000 -c 0 -i 12 -a 0 -x {0.0 2.0 12 ------- null}
- -t 0.23 -s 0 -d 1 -p cbr -e 1000 -c 0 -i 12 -a 0 -x {0.0 2.0 12 ------- null}
h -t 0.23 -s 0 -d 1 -p cbr -e 1000 -c 0 -i 12 -a 0 -x {0.0 2.0 -1 ------- null}
+ -t 0.23 -s 0 -d 1 -p cbr -e 24 -c 0 -i 13 -a 0 -x {0.0 2.0 13 ------- null}
- -t 0.230984 -s 1 -d 2 -p cbr -e 24 -c 0 -i 5 -a 0 -x {0.0 2.0 5 ------- null}
h -t 0.230984 -s 1 -d 2 -p cbr -e 24 -c 0 -i 5 -a 0 -x {0.0 2.0 -1 ------- null}
- -t 0.231176 -s 1 -d 2 -p cbr -e 1000 -c 0 -i 6 -a 0 -x {0.0 2.0 6 ------- null}
h -t 0.231176 -s 1 -d 2 -p cbr -e 1000 -c 0 -i 6 -a 0 -x {0.0 2.0 -1 ------- null}
r -t 0.2316 -s 0 -d 1 -p cbr -e 1000 -c 0 -i 10 -a 0 -x {0.0 2.0 10 ------- null}
+ -t 0.2316 -s 1 -d 2 -p cbr -e 1000 -c 0 -i 10 -a 0 -x {0.0 2.0 10 ------- null}
- -t 0.2316 -s 0 -d 1 -p cbr -e 24 -c 0 -i 13 -a 0 -x {0.0 2.0 13 ------- null}
h -t 0.2316 -s 0 -d 1 -p cbr -e 24 -c 0 -i 13 -a 0 -x {0.0 2.0 -1 ------- null}
r -t 0.2316384 -s 0 -d 1 -p cbr -e 24 -c 0 -i 11 -a 0 -x {0.0 2.0 11 ------- null}
+ -t 0.2316384 -s 1 -d 2 -p cbr -e 24 -c 0 -i 11 -a 0 -x {0.0 2.0 11 ------- null}
+ -t 0.235 -s 0 -d 1 -p cbr -e 1000 -c 0 -i 14 -a 0 -x {0.0 2.0 14 ------- null}
- -t 0.235 -s 0 -d 1 -p cbr -e 1000 -c 0 -i 14 -a 0 -x {0.0 2.0 14 ------- null}
h -t 0.235 -s 0 -d 1 -p cbr -e 1000 -c 0 -i 14 -a 0 -x {0.0 2.0 -1 ------- null}
+ -t 0.235 -s 0 -d 1 -p cbr -e 24 -c 0 -i 15 -a 0 -x {0.0 2.0 15 ------- null}
r -t 0.235984 -s 1 -d 2 -p cbr -e 1000 -c 0 -i 4 -a 0 -x {0.0 2.0 4 ------- null}
r -t 0.236176 -s 1 -d 2 -p cbr -e 24 -c 0 -i 5 -a 0 -x {0.0 2.0 5 ------- null}
r -t 0.2366 -s 0 -d 1 -p cbr -e 1000 -c 0 -i 12 -a 0 -x {0.0 2.0 12 ------- null}
+ -t 0.2366 -s 1 -d 2 -p cbr -e 1000 -c 0 -i 12 -a 0 -x {0.0 2.0 12 ------- null}
- -t 0.2366 -s 0 -d 1 -p cbr -e 24 -c 0 -i 15 -a 0 -x {0.0 2.0 15 ------- null}
h -t 0.2366 -s 0 -d 1 -p cbr -e 24 -c 0 -i 15 -a 0 -x {0.0 2.0 -1 ------- null}
r -t 0.2366384 -s 0 -d 1 -p cbr -e 24 -c 0 -i 13 -a 0 -x {0.0 2.0 13 ------- null}
+ -t 0.2366384 -s 1 -d 2 -p cbr -e 24 -c 0 -i 13 -a 0 -x {0.0 2.0 13 ------- null}
- -t 0.239176 -s 1 -d 2 -p cbr -e 24 -c 0 -i 7 -a 0 -x {0.0 2.0 7 ------- null}
h -t 0.239176 -s 1 -d 2 -p cbr -e 24 -c 0 -i 7 -a 0 -x {0.0 2.0 -1 ------- null}
- -t 0.239368 -s 1 -d 2 -p cbr -e 1000 -c 0 -i 8 -a 0 -x {0.0 2.0 8 ------- null}
h -t 0.239368 -s 1 -d 2 -p cbr -e 1000 -c 0 -i 8 -a 0 -x {0.0 2.0 -1 ------- null}
+ -t 0.24 -s 0 -d 1 -p cbr -e 1000 -c 0 -i 16 -a 0 -x {0.0 2.0 16 ------- null}
- -t 0.24 -s 0 -d 1 -p cbr -e 1000 -c 0 -i 16 -a 0 -x {0.0 2.0 16 ------- null}
h -t 0.24 -s 0 -d 1 -p cbr -e 1000 -c 0 -i 16 -a 0 -x {0.0 2.0 -1 ------- null}
+ -t 0.24 -s 0 -d 1 -p cbr -e 24 -c 0 -i 17 -a 0 -x {0.0 2.0 17 ------- null}
r -t 0.2416 -s 0 -d 1 -p cbr -e 1000 -c 0 -i 14 -a 0 -x {0.0 2.0 14 ------- null}
+ -t 0.2416 -s 1 -d 2 -p cbr -e 1000 -c 0 -i 14 -a 0 -x {0.0 2.0 14 ------- null}
- -t 0.2416 -s 0 -d 1 -p cbr -e 24 -c 0 -i 17 -a 0 -x {0.0 2.0 17 ------- null}
h -t 0.2416 -s 0 -d 1 -p cbr -e 24 -c 0 -i 17 -a 0 -x {0.0 2.0 -1 ------- null}
r -t 0.2416384 -s 0 -d 1 -p cbr -e 24 -c 0 -i 15 -a 0 -x {0.0 2.0 15 ------- null}
+ -t 0.2416384 -s 1 -d 2 -p cbr -e 24 -c 0 -i 15 -a 0 -x {0.0 2.0 15 ------- null}
r -t 0.244176 -s 1 -d 2 -p cbr -e 1000 -c 0 -i 6 -a 0 -x {0.0 2.0 6 ------- null}
r -t 0.244368 -s 1 -d 2 -p cbr -e 24 -c 0 -i 7 -a 0 -x {0.0 2.0 7 ------- null}
+ -t 0.245 -s 0 -d 1 -p cbr -e 1000 -c 0 -i 18 -a 0 -x {0.0 2.0 18 ------- null}
- -t 0.245 -s 0 -d 1 -p cbr -e 1000 -c 0 -i 18 -a 0 -x {0.0 2.0 18 ------- null}
h -t 0.245 -s 0 -d 1 -p cbr -e 1000 -c 0 -i 18 -a 0 -x {0.0 2.0 -1 ------- null}
+ -t 0.245 -s 0 -d 1 -p cbr -e 24 -c 0 -i 19 -a 0 -x {0.0 2.0 19 ------- null}
r -t 0.2466 -s 0 -d 1 -p cbr -e 1000 -c 0 -i 16 -a 0 -x {0.0 2.0 16 ------- null}
+ -t 0.2466 -s 1 -d 2 -p cbr -e 1000 -c 0 -i 16 -a 0 -x {0.0 2.0 16 ------- null}
d -t 0.2466 -s 1 -d 2 -p cbr -e 1000 -c 0 -i 16 -a 0 -x {0.0 2.0 16 ------- null}
- -t 0.2466 -s 0 -d 1 -p cbr -e 24 -c 0 -i 19 -a 0 -x {0.0 2.0 19 ------- null}
h -t 0.2466 -s 0 -d 1 -p cbr -e 24 -c 0 -i 19 -a 0 -x {0.0 2.0 -1 ------- null}
r -t 0.2466384 -s 0 -d 1 -p cbr -e 24 -c 0 -i 17 -a 0 -x {0.0 2.0 17 ------- null}
+ -t 0.2466384 -s 1 -d 2 -p cbr -e 24 -c 0 -i 17 -a 0 -x {0.0 2.0 17 ------- null}
d -t 0.2466384 -s 1 -d 2 -p cbr -e 24 -c 0 -i 17 -a 0 -x {0.0 2.0 17 ------- null}
- -t 0.247368 -s 1 -d 2 -p cbr -e 24 -c 0 -i 9 -a 0 -x {0.0 2.0 9 ------- null}
h -t 0.247368 -s 1 -d 2 -p cbr -e 24 -c 0 -i 9 -a 0 -x {0.0 2.0 -1 ------- null}
- -t 0.24756 -s 1 -d 2 -p cbr -e 1000 -c 0 -i 10 -a 0 -x {0.0 2.0 10 ------- null}
h -t 0.24756 -s 1 -d 2 -p cbr -e 1000 -c 0 -i 10 -a 0 -x {0.0 2.0 -1 ------- null}
+ -t 0.25 -s 0 -d 1 -p cbr -e 1000 -c 0 -i 20 -a 0 -x {0.0 2.0 20 ------- null}
- -t 0.25 -s 0 -d 1 -p cbr -e 1000 -c 0 -i 20 -a 0 -x {0.0 2.0 20 ------- null}
h -t 0.25 -s 0 -d 1 -p cbr -e 1000 -c 0 -i 20 -a 0 -x {0.0 2.0 -1 ------- null}
+ -t 0.25 -s 0 -d 1 -p cbr -e 24 -c 0 -i 21 -a 0 -x {0.0 2.0 21 ------- null}
r -t 0.2516 -s 0 -d 1 -p cbr -e 1000 -c 0 -i 18 -a 0 -x {0.0 2.0 18 ------- null}
+ -t 0.2516 -s 1 -d 2 -p cbr -e 1000 -c 0 -i 18 -a 0 -x {0.0 2.0 18 ------- null}
- -t 0.2516 -s 0 -d 1 -p cbr -e 24 -c 0 -i 21 -a 0 -x {0.0 2.0 21 ------- null}
h -t 0.2516 -s 0 -d 1 -p cbr -e 24 -c 0 -i 21 -a 0 -x {0.0 2.0 -1 ------- null}
r -t 0.2516384 -s 0 -d 1 -p cbr -e 24 -c 0 -i 19 -a 0 -x {0.0 2.0 19 ------- null}
+ -t 0.2516384 -s 1 -d 2 -p cbr -e 24 -c 0 -i 19 -a 0 -x {0.0 2.0 19 ------- null}
r -t 0.252368 -s 1 -d 2 -p cbr -e 1000 -c 0 -i 8 -a 0 -x {0.0 2.0 8 ------- null}
r -t 0.25256 -s 1 -d 2 -p cbr -e 24 -c 0 -i 9 -a 0 -x {0.0 2.0 9 ------- null}
+ -t 0.255 -s 0 -d 1 -p cbr -e 1000 -c 0 -i 22 -a 0 -x {0.0 2.0 22 ------- null}
- -t 0.255 -s 0 -d 1 -p cbr -e 1000 -c 0 -i 22 -a 0 -x {0.0 2.0 22 ------- null}
h -t 0.255 -s 0 -d 1 -p cbr -e 1000 -c 0 -i 22 -a 0 -x {0.0 2.0 -1 ------- null}
+ -t 0.255 -s 0 -d 1 -p cbr -e 24 -c 0 -i 23 -a 0 -x {0.0 2.0 23 ------- null}
- -t 0.25556 -s 1 -d 2 -p cbr -e 24 -c 0 -i 11 -a 0 -x {0.0 2.0 11 ------- null}
h -t 0.25556 -s 1 -d 2 -p cbr -e 24 -c 0 -i 11 -a 0 -x {0.0 2.0 -1 ------- null}
- -t 0.255752 -s 1 -d 2 -p cbr -e 1000 -c 0 -i 12 -a 0 -x {0.0 2.0 12 ------- null}
h -t 0.255752 -s 1 -d 2 -p cbr -e 1000 -c 0 -i 12 -a 0 -x {0.0 2.0 -1 ------- null}
r -t 0.2566 -s 0 -d 1 -p cbr -e 1000 -c 0 -i 20 -a 0 -x {0.0 2.0 20 ------- null}
+ -t 0.2566 -s 1 -d 2 -p cbr -e 1000 -c 0 -i 20 -a 0 -x {0.0 2.0 20 ------- null}
- -t 0.2566 -s 0 -d 1 -p cbr -e 24 -c 0 -i 23 -a 0 -x {0.0 2.0 23 ------- null}
h -t 0.2566 -s 0 -d 1 -p cbr -e 24 -c 0 -i 23 -a 0 -x {0.0 2.0 -1 ------- null}
r -t 0.2566384 -s 0 -d 1 -p cbr -e 24 -c 0 -i 21 -a 0 -x {0.0 2.0 21 ------- null}
+ -t 0.2566384 -s 1 -d 2 -p cbr -e 24 -c 0 -i 21 -a 0 -x {0.0 2.0 21 ------- null}
+ -t 0.26 -s 0 -d 1 -p cbr -e 1000 -c 0 -i 24 -a 0 -x {0.0 2.0 24 ------- null}
- -t 0.26 -s 0 -d 1 -p cbr -e 1000 -c 0 -i 24 -a 0 -x {0.0 2.0 24 ------- null}
h -t 0.26 -s 0 -d 1 -p cbr -e 1000 -c 0 -i 24 -a 0 -x {0.0 2.0 -1 ------- null}
+ -t 0.26 -s 0 -d 1 -p cbr -e 24 -c 0 -i 25 -a 0 -x {0.0 2.0 25 ------- null}
r -t 0.26056 -s 1 -d 2 -p cbr -e 1000 -c 0 -i 10 -a 0 -x {0.0 2.0 10 ------- null}
r -t 0.260752 -s 1 -d 2 -p cbr -e 24 -c 0 -i 11 -a 0 -x {0.0 2.0 11 ------- null}
r -t 0.2616 -s 0 -d 1 -p cbr -e 1000 -c 0 -i 22 -a 0 -x {0.0 2.0 22 ------- null}
+ -t 0.2616 -s 1 -d 2 -p cbr -e 1000 -c 0 -i 22 -a 0 -x {0.0 2.0 22 ------- null}
d -t 0.2616 -s 1 -d 2 -p cbr -e 1000 -c 0 -i 22 -a 0 -x {0.0 2.0 22 ------- null}
- -t 0.2616 -s 0 -d 1 -p cbr -e 24 -c 0 -i 25 -a 0 -x {0.0 2.0 25 ------- null}
h -t 0.2616 -s 0 -d 1 -p cbr -e 24 -c 0 -i 25 -a 0 -x {0.0 2.0 -1 ------- null}
r -t 0.2616384 -s 0 -d 1 -p cbr -e 24 -c 0 -i 23 -a 0 -x {0.0 2.0 23 ------- null}
+ -t 0.2616384 -s 1 -d 2 -p cbr -e 24 -c 0 -i 23 -a 0 -x {0.0 2.0 23 ------- null}
d -t 0.2616384 -s 1 -d 2 -p cbr -e 24 -c 0 -i 23 -a 0 -x {0.0 2.0 23 ------- null}
- -t 0.263752 -s 1 -d 2 -p cbr -e 24 -c 0 -i 13 -a 0 -x {0.0 2.0 13 ------- null}
h -t 0.263752 -s 1 -d 2 -p cbr -e 24 -c 0 -i 13 -a 0 -x {0.0 2.0 -1 ------- null}
- -t 0.263944 -s 1 -d 2 -p cbr -e 1000 -c 0 -i 14 -a 0 -x {0.0 2.0 14 ------- null}
h -t 0.263944 -s 1 -d 2 -p cbr -e 1000 -c 0 -i 14 -a 0 -x {0.0 2.0 -1 ------- null}
+ -t 0.265 -s 0 -d 1 -p cbr -e 1000 -c 0 -i 26 -a 0 -x {0.0 2.0 26 ------- null}
- -t 0.265 -s 0 -d 1 -p cbr -e 1000 -c 0 -i 26 -a 0 -x {0.0 2.0 26 ------- null}
h -t 0.265 -s 0 -d 1 -p cbr -e 1000 -c 0 -i 26 -a 0 -x {0.0 2.0 -1 ------- null}
+ -t 0.265 -s 0 -d 1 -p cbr -e 24 -c 0 -i 27 -a 0 -x {0.0 2.0 27 ------- null}
r -t 0.2666 -s 0 -d 1 -p cbr -e 1000 -c 0 -i 24 -a 0 -x {0.0 2.0 24 ------- null}
+ -t 0.2666 -s 1 -d 2 -p cbr -e 1000 -c 0 -i 24 -a 0 -x {0.0 2.0 24 ------- null}
- -t 0.2666 -s 0 -d 1 -p cbr -e 24 -c 0 -i 27 -a 0 -x {0.0 2.0 27 ------- null}
h -t 0.2666 -s 0 -d 1 -p cbr -e 24 -c 0 -i 27 -a 0 -x {0.0 2.0 -1 ------- null}
r -t 0.2666384 -s 0 -d 1 -p cbr -e 24 -c 0 -i 25 -a 0 -x {0.0 2.0 25 ------- null}
+ -t 0.2666384 -s 1 -d 2 -p cbr -e 24 -c 0 -i 25 -a 0 -x {0.0 2.0 25 ------- null}
r -t 0.268752 -s 1 -d 2 -p cbr -e 1000 -c 0 -i 12 -a 0 -x {0.0 2.0 12 ------- null}
r -t 0.268944 -s 1 -d 2 -p cbr -e 24 -c 0 -i 13 -a 0 -x {0.0 2.0 13 ------- null}
+ -t 0.27 -s 0 -d 1 -p cbr -e 1000 -c 0 -i 28 -a 0 -x {0.0 2.0 28 ------- null}
- -t 0.27 -s 0 -d 1 -p cbr -e 1000 -c 0 -i 28 -a 0 -x {0.0 2.0 28 ------- null}
h -t 0.27 -s 0 -d 1 -p cbr -e 1000 -c 0 -i 28 -a 0 -x {0.0 2.0 -1 ------- null}
+ -t 0.27 -s 0 -d 1 -p cbr -e 24 -c 0 -i 29 -a 0 -x {0.0 2.0 29 ------- null}
r -t 0.2716 -s 0 -d 1 -p cbr -e 1000 -c 0 -i 26 -a 0 -x {0.0 2.0 26 ------- null}
+ -t 0.2716 -s 1 -d 2 -p cbr -e 1000 -c 0 -i 26 -a 0 -x {0.0 2.0 26 ------- null}
d -t 0.2716 -s 1 -d 2 -p cbr -e 1000 -c 0 -i 26 -a 0 -x {0.0 2.0 26 ------- null}
- -t 0.2716 -s 0 -d 1 -p cbr -e 24 -c 0 -i 29 -a 0 -x {0.0 2.0 29 ------- null}
h -t 0.2716 -s 0 -d 1 -p cbr -e 24 -c 0 -i 29 -a 0 -x {0.0 2.0 -1 ------- null}
r -t 0.2716384 -s 0 -d 1 -p cbr -e 24 -c 0 -i 27 -a 0 -x {0.0 2.0 27 ------- null}
+ -t 0.2716384 -s 1 -d 2 -p cbr -e 24 -c 0 -i 27 -a 0 -x {0.0 2.0 27 ------- null}
d -t 0.2716384 -s 1 -d 2 -p cbr -e 24 -c 0 -i 27 -a 0 -x {0.0 2.0 27 ------- null}
- -t 0.271944 -s 1 -d 2 -p cbr -e 24 -c 0 -i 15 -a 0 -x {0.0 2.0 15 ------- null}
h -t 0.271944 -s 1 -d 2 -p cbr -e 24 -c 0 -i 15 -a 0 -x {0.0 2.0 -1 ------- null}
- -t 0.272136 -s 1 -d 2 -p cbr -e 1000 -c 0 -i 18 -a 0 -x {0.0 2.0 18 ------- null}
h -t 0.272136 -s 1 -d 2 -p cbr -e 1000 -c 0 -i 18 -a 0 -x {0.0 2.0 -1 ------- null}
+ -t 0.275 -s 0 -d 1 -p cbr -e 1000 -c 0 -i 30 -a 0 -x {0.0 2.0 30 ------- null}
- -t 0.275 -s 0 -d 1 -p cbr -e 1000 -c 0 -i 30 -a 0 -x {0.0 2.0 30 ------- null}
h -t 0.275 -s 0 -d 1 -p cbr -e 1000 -c 0 -i 30 -a 0 -x {0.0 2.0 -1 ------- null}
+ -t 0.275 -s 0 -d 1 -p cbr -e 24 -c 0 -i 31 -a 0 -x {0.0 2.0 31 ------- null}
r -t 0.2766 -s 0 -d 1 -p cbr -e 1000 -c 0 -i 28 -a 0 -x {0.0 2.0 28 ------- null}
+ -t 0.2766 -s 1 -d 2 -p cbr -e 1000 -c 0 -i 28 -a 0 -x {0.0 2.0 28 ------- null}
- -t 0.2766 -s 0 -d 1 -p cbr -e 24 -c 0 -i 31 -a 0 -x {0.0 2.0 31 ------- null}
h -t 0.2766 -s 0 -d 1 -p cbr -e 24 -c 0 -i 31 -a 0 -x {0.0 2.0 -1 ------- null}
r -t 0.2766384 -s 0 -d 1 -p cbr -e 24 -c 0 -i 29 -a 0 -x {0.0 2.0 29 ------- null}
+ -t 0.2766384 -s 1 -d 2 -p cbr -e 24 -c 0 -i 29 -a 0 -x {0.0 2.0 29 ------- null}
r -t 0.276944 -s 1 -d 2 -p cbr -e 1000 -c 0 -i 14 -a 0 -x {0.0 2.0 14 ------- null}
r -t 0.277136 -s 1 -d 2 -p cbr -e 24 -c 0 -i 15 -a 0 -x {0.0 2.0 15 ------- null}
+ -t 0.28 -s 0 -d 1 -p cbr -e 1000 -c 0 -i 32 -a 0 -x {0.0 2.0 32 ------- null}
- -t 0.28 -s 0 -d 1 -p cbr -e 1000 -c 0 -i 32 -a 0 -x {0.0 2.0 32 ------- null}
h -t 0.28 -s 0 -d 1 -p cbr -e 1000 -c 0 -i 32 -a 0 -x {0.0 2.0 -1 ------- null}
+ -t 0.28 -s 0 -d 1 -p cbr -e 24 -c 0 -i 33 -a 0 -x {0.0 2.0 33 ------- null}
- -t 0.280136 -s 1 -d 2 -p cbr -e 24 -c 0 -i 19 -a 0 -x {0.0 2.0 19 ------- null}
h -t 0.280136 -s 1 -d 2 -p cbr -e 24 -c 0 -i 19 -a 0 -x {0.0 2.0 -1 ------- null}
- -t 0.280328 -s 1 -d 2 -p cbr -e 1000 -c 0 -i 20 -a 0 -x {0.0 2.0 20 ------- null}
h -t 0.280328 -s 1 -d 2 -p cbr -e 1000 -c 0 -i 20 -a 0 -x {0.0 2.0 -1 ------- null}
r -t 0.2816 -s 0 -d 1 -p cbr -e 1000 -c 0 -i 30 -a 0 -x {0.0 2.0 30 ------- null}
+ -t 0.2816 -s 1 -d 2 -p cbr -e 1000 -c 0 -i 30 -a 0 -x {0.0 2.0 30 ------- null}
- -t 0.2816 -s 0 -d 1 -p cbr -e 24 -c 0 -i 33 -a 0 -x {0.0 2.0 33 ------- null}
h -t 0.2816 -s 0 -d 1 -p cbr -e 24 -c 0 -i 33 -a 0 -x {0.0 2.0 -1 ------- null}
r -t 0.2816384 -s 0 -d 1 -p cbr -e 24 -c 0 -i 31 -a 0 -x {0.0 2.0 31 ------- null}
+ -t 0.2816384 -s 1 -d 2 -p cbr -e 24 -c 0 -i 31 -a 0 -x {0.0 2.0 31 ------- null}
+ -t 0.285 -s 0 -d 1 -p cbr -e 1000 -c 0 -i 34 -a 0 -x {0.0 2.0 34 ------- null}
- -t 0.285 -s 0 -d 1 -p cbr -e 1000 -c 0 -i 34 -a 0 -x {0.0 2.0 34 ------- null}
h -t 0.285 -s 0 -d 1 -p cbr -e 1000 -c 0 -i 34 -a 0 -x {0.0 2.0 -1 ------- null}
+ -t 0.285 -s 0 -d 1 -p cbr -e 24 -c 0 -i 35 -a 0 -x {0.0 2.0 35 ------- null}
r -t 0.285136 -s 1 -d 2 -p cbr -e 1000 -c 0 -i 18 -a 0 -x {0.0 2.0 18 ------- null}
r -t 0.285328 -s 1 -d 2 -p cbr -e 24 -c 0 -i 19 -a 0 -x {0.0 2.0 19 ------- null}
r -t 0.2866 -s 0 -d 1 -p cbr -e 1000 -c 0 -i 32 -a 0 -x {0.0 2.0 32 ------- null}
+ -t 0.2866 -s 1 -d 2 -p cbr -e 1000 -c 0 -i 32 -a 0 -x {0.0 2.0 32 ------- null}
d -t 0.2866 -s 1 -d 2 -p cbr -e 1000 -c 0 -i 32 -a 0 -x {0.0 2.0 32 ------- null}
- -t 0.2866 -s 0 -d 1 -p cbr -e 24 -c 0 -i 35 -a 0 -x {0.0 2.0 35 ------- null}
h -t 0.2866 -s 0 -d 1 -p cbr -e 24 -c 0 -i 35 -a 0 -x {0.0 2.0 -1 ------- null}
r -t 0.2866384 -s 0 -d 1 -p cbr -e 24 -c 0 -i 33 -a 0 -x {0.0 2.0 33 ------- null}
+ -t 0.2866384 -s 1 -d 2 -p cbr -e 24 -c 0 -i 33 -a 0 -x {0.0 2.0 33 ------- null}
d -t 0.2866384 -s 1 -d 2 -p cbr -e 24 -c 0 -i 33 -a 0 -x {0.0 2.0 33 ------- null}
- -t 0.288328 -s 1 -d 2 -p cbr -e 24 -c 0 -i 21 -a 0 -x {0.0 2.0 21 ------- null}
h -t 0.288328 -s 1 -d 2 -p cbr -e 24 -c 0 -i 21 -a 0 -x {0.0 2.0 -1 ------- null}
- -t 0.28852 -s 1 -d 2 -p cbr -e 1000 -c 0 -i 24 -a 0 -x {0.0 2.0 24 ------- null}
h -t 0.28852 -s 1 -d 2 -p cbr -e 1000 -c 0 -i 24 -a 0 -x {0.0 2.0 -1 ------- null}
+ -t 0.29 -s 0 -d 1 -p cbr -e 1000 -c 0 -i 36 -a 0 -x {0.0 2.0 36 ------- null}
- -t 0.29 -s 0 -d 1 -p cbr -e 1000 -c 0 -i 36 -a 0 -x {0.0 2.0 36 ------- null}
h -t 0.29 -s 0 -d 1 -p cbr -e 1000 -c 0 -i 36 -a 0 -x {0.0 2.0 -1 ------- null}
+ -t 0.29 -s 0 -d 1 -p cbr -e 24 -c 0 -i 37 -a 0 -x {0.0 2.0 37 ------- null}
r -t 0.2916 -s 0 -d 1 -p cbr -e 1000 -c 0 -i 34 -a 0 -x {0.0 2.0 34 ------- null}
+ -t 0.2916 -s 1 -d 2 -p cbr -e 1000 -c 0 -i 34 -a 0 -x {0.0 2.0 34 ------- null}
- -t 0.2916 -s 0 -d 1 -p cbr -e 24 -c 0 -i 37 -a 0 -x {0.0 2.0 37 ------- null}
h -t 0.2916 -s 0 -d 1 -p cbr -e 24 -c 0 -i 37 -a 0 -x {0.0 2.0 -1 ------- null}
r -t 0.2916384 -s 0 -d 1 -p cbr -e 24 -c 0 -i 35 -a 0 -x {0.0 2.0 35 ------- null}
+ -t 0.2916384 -s 1 -d 2 -p cbr -e 24 -c 0 -i 35 -a 0 -x {0.0 2.0 35 ------- null}
r -t 0.293328 -s 1 -d 2 -p cbr -e 1000 -c 0 -i 20 -a 0 -x {0.0 2.0 20 ------- null}
r -t 0.29352 -s 1 -d 2 -p cbr -e 24 -c 0 -i 21 -a 0 -x {0.0 2.0 21 ------- null}
+ -t 0.295 -s 0 -d 1 -p cbr -e 1000 -c 0 -i 38 -a 0 -x {0.0 2.0 38 ------- null}
- -t 0.295 -s 0 -d 1 -p cbr -e 1000 -c 0 -i 38 -a 0 -x {0.0 2.0 38 ------- null}
h -t 0.295 -s 0 -d 1 -p cbr -e 1000 -c 0 -i 38 -a 0 -x {0.0 2.0 -1 ------- null}
+ -t 0.295 -s 0 -d 1 -p cbr -e 24 -c 0 -i 39 -a 0 -x {0.0 2.0 39 ------- null}
- -t 0.29652 -s 1 -d 2 -p cbr -e 24 -c 0 -i 25 -a 0 -x {0.0 2.0 25 ------- null}
h -t 0.29652 -s 1 -d 2 -p cbr -e 24 -c 0 -i 25 -a 0 -x {0.0 2.0 -1 ------- null}
r -t 0.2966 -s 0 -d 1 -p cbr -e 1000 -c 0 -i 36 -a 0 -x {0.0 2.0 36 ------- null}
+ -t 0.2966 -s 1 -d 2 -p cbr -e 1000 -c 0 -i 36 -a 0 -x {0.0 2.0 36 ------- null}
- -t 0.2966 -s 0 -d 1 -p cbr -e 24 -c 0 -i 39 -a 0 -x {0.0 2.0 39 ------- null}
h -t 0.2966 -s 0 -d 1 -p cbr -e 24 -c 0 -i 39 -a 0 -x {0.0 2.0 -1 ------- null}
r -t 0.2966384 -s 0 -d 1 -p cbr -e 24 -c 0 -i 37 -a 0 -x {0.0 2.0 37 ------- null}
+ -t 0.2966384 -s 1 -d 2 -p cbr -e 24 -c 0 -i 37 -a 0 -x {0.0 2.0 37 ------- null}
d -t 0.2966384 -s 1 -d 2 -p cbr -e 24 -c 0 -i 37 -a 0 -x {0.0 2.0 37 ------- null}
- -t 0.296712 -s 1 -d 2 -p cbr -e 1000 -c 0 -i 28 -a 0 -x {0.0 2.0 28 ------- null}
h -t 0.296712 -s 1 -d 2 -p cbr -e 1000 -c 0 -i 28 -a 0 -x {0.0 2.0 -1 ------- null}
+ -t 0.3 -s 0 -d 1 -p cbr -e 1000 -c 0 -i 40 -a 0 -x {0.0 2.0 40 ------- null}
- -t 0.3 -s 0 -d 1 -p cbr -e 1000 -c 0 -i 40 -a 0 -x {0.0 2.0 40 ------- null}
h -t 0.3 -s 0 -d 1 -p cbr -e 1000 -c 0 -i 40 -a 0 -x {0.0 2.0 -1 ------- null}
+ -t 0.3 -s 0 -d 1 -p cbr -e 24 -c 0 -i 41 -a 0 -x {0.0 2.0 41 ------- null}
r -t 0.30152 -s 1 -d 2 -p cbr -e 1000 -c 0 -i 24 -a 0 -x {0.0 2.0 24 ------- null}
r -t 0.3016 -s 0 -d 1 -p cbr -e 1000 -c 0 -i 38 -a 0 -x {0.0 2.0 38 ------- null}
+ -t 0.3016 -s 1 -d 2 -p cbr -e 1000 -c 0 -i 38 -a 0 -x {0.0 2.0 38 ------- null}
- -t 0.3016 -s 0 -d 1 -p cbr -e 24 -c 0 -i 41 -a 0 -x {0.0 2.0 41 ------- null}
h -t 0.3016 -s 0 -d 1 -p cbr -e 24 -c 0 -i 41 -a 0 -x {0.0 2.0 -1 ------- null}
r -t 0.3016384 -s 0 -d 1 -p cbr -e 24 -c 0 -i 39 -a 0 -x {0.0 2.0 39 ------- null}
+ -t 0.3016384 -s 1 -d 2 -p cbr -e 24 -c 0 -i 39 -a 0 -x {0.0 2.0 39 ------- null}
d -t 0.3016384 -s 1 -d 2 -p cbr -e 24 -c 0 -i 39 -a 0 -x {0.0 2.0 39 ------- null}
r -t 0.301712 -s 1 -d 2 -p cbr -e 24 -c 0 -i 25 -a 0 -x {0.0 2.0 25 ------- null}
- -t 0.304712 -s 1 -d 2 -p cbr -e 24 -c 0 -i 29 -a 0 -x {0.0 2.0 29 ------- null}
h -t 0.304712 -s 1 -d 2 -p cbr -e 24 -c 0 -i 29 -a 0 -x {0.0 2.0 -1 ------- null}
- -t 0.304904 -s 1 -d 2 -p cbr -e 1000 -c 0 -i 30 -a 0 -x {0.0 2.0 30 ------- null}
h -t 0.304904 -s 1 -d 2 -p cbr -e 1000 -c 0 -i 30 -a 0 -x {0.0 2.0 -1 ------- null}
+ -t 0.305 -s 0 -d 1 -p cbr -e 1000 -c 0 -i 42 -a 0 -x {0.0 2.0 42 ------- null}
- -t 0.305 -s 0 -d 1 -p cbr -e 1000 -c 0 -i 42 -a 0 -x {0.0 2.0 42 ------- null}
h -t 0.305 -s 0 -d 1 -p cbr -e 1000 -c 0 -i 42 -a 0 -x {0.0 2.0 -1 ------- null}
+ -t 0.305 -s 0 -d 1 -p cbr -e 24 -c 0 -i 43 -a 0 -x {0.0 2.0 43 ------- null}
r -t 0.3066 -s 0 -d 1 -p cbr -e 1000 -c 0 -i 40 -a 0 -x {0.0 2.0 40 ------- null}
+ -t 0.3066 -s 1 -d 2 -p cbr -e 1000 -c 0 -i 40 -a 0 -x {0.0 2.0 40 ------- null}
- -t 0.3066 -s 0 -d 1 -p cbr -e 24 -c 0 -i 43 -a 0 -x {0.0 2.0 43 ------- null}
h -t 0.3066 -s 0 -d 1 -p cbr -e 24 -c 0 -i 43 -a 0 -x {0.0 2.0 -1 ------- null}
r -t 0.3066384 -s 0 -d 1 -p cbr -e 24 -c 0 -i 41 -a 0 -x {0.0 2.0 41 ------- null}
+ -t 0.3066384 -s 1 -d 2 -p cbr -e 24 -c 0 -i 41 -a 0 -x {0.0 2.0 41 ------- null}
r -t 0.309712 -s 1 -d 2 -p cbr -e 1000 -c 0 -i 28 -a 0 -x {0.0 2.0 28 ------- null}
r -t 0.309904 -s 1 -d 2 -p cbr -e 24 -c 0 -i 29 -a 0 -x {0.0 2.0 29 ------- null}
+ -t 0.31 -s 0 -d 1 -p cbr -e 1000 -c 0 -i 44 -a 0 -x {0.0 2.0 44 ------- null}
- -t 0.31 -s 0 -d 1 -p cbr -e 1000 -c 0 -i 44 -a 0 -x {0.0 2.0 44 ------- null}
h -t 0.31 -s 0 -d 1 -p cbr -e 1000 -c 0 -i 44 -a 0 -x {0.0 2.0 -1 ------- null}
+ -t 0.31 -s 0 -d 1 -p cbr -e 24 -c 0 -i 45 -a 0 -x {0.0 2.0 45 ------- null}
r -t 0.3116 -s 0 -d 1 -p cbr -e 1000 -c 0 -i 42 -a 0 -x {0.0 2.0 42 ------- null}
+ -t 0.3116 -s 1 -d 2 -p cbr -e 1000 -c 0 -i 42 -a 0 -x {0.0 2.0 42 ------- null}
d -t 0.3116 -s 1 -d 2 -p cbr -e 1000 -c 0 -i 42 -a 0 -x {0.0 2.0 42 ------- null}
- -t 0.3116 -s 0 -d 1 -p cbr -e 24 -c 0 -i 45 -a 0 -x {0.0 2.0 45 ------- null}
h -t 0.3116 -s 0 -d 1 -p cbr -e 24 -c 0 -i 45 -a 0 -x {0.0 2.0 -1 ------- null}
r -t 0.3116384 -s 0 -d 1 -p cbr -e 24 -c 0 -i 43 -a 0 -x {0.0 2.0 43 ------- null}
+ -t 0.3116384 -s 1 -d 2 -p cbr -e 24 -c 0 -i 43 -a 0 -x {0.0 2.0 43 ------- null}
d -t 0.3116384 -s 1 -d 2 -p cbr -e 24 -c 0 -i 43 -a 0 -x {0.0 2.0 43 ------- null}
- -t 0.312904 -s 1 -d 2 -p cbr -e 24 -c 0 -i 31 -a 0 -x {0.0 2.0 31 ------- null}
h -t 0.312904 -s 1 -d 2 -p cbr -e 24 -c 0 -i 31 -a 0 -x {0.0 2.0 -1 ------- null}
- -t 0.313096 -s 1 -d 2 -p cbr -e 1000 -c 0 -i 34 -a 0 -x {0.0 2.0 34 ------- null}
h -t 0.313096 -s 1 -d 2 -p cbr -e 1000 -c 0 -i 34 -a 0 -x {0.0 2.0 -1 ------- null}
+ -t 0.315 -s 0 -d 1 -p cbr -e 1000 -c 0 -i 46 -a 0 -x {0.0 2.0 46 ------- null}
- -t 0.315 -s 0 -d 1 -p cbr -e 1000 -c 0 -i 46 -a 0 -x {0.0 2.0 46 ------- null}
h -t 0.315 -s 0 -d 1 -p cbr -e 1000 -c 0 -i 46 -a 0 -x {0.0 2.0 -1 ------- null}
+ -t 0.315 -s 0 -d 1 -p cbr -e 24 -c 0 -i 47 -a 0 -x {0.0 2.0 47 ------- null}
r -t 0.3166 -s 0 -d 1 -p cbr -e 1000 -c 0 -i 44 -a 0 -x {0.0 2.0 44 ------- null}
+ -t 0.3166 -s 1 -d 2 -p cbr -e 1000 -c 0 -i 44 -a 0 -x {0.0 2.0 44 ------- null}
- -t 0.3166 -s 0 -d 1 -p cbr -e 24 -c 0 -i 47 -a 0 -x {0.0 2.0 47 ------- null}
h -t 0.3166 -s 0 -d 1 -p cbr -e 24 -c 0 -i 47 -a 0 -x {0.0 2.0 -1 ------- null}
r -t 0.3166384 -s 0 -d 1 -p cbr -e 24 -c 0 -i 45 -a 0 -x {0.0 2.0 45 ------- null}
+ -t 0.3166384 -s 1 -d 2 -p cbr -e 24 -c 0 -i 45 -a 0 -x {0.0 2.0 45 ------- null}
r -t 0.317904 -s 1 -d 2 -p cbr -e 1000 -c 0 -i 30 -a 0 -x {0.0 2.0 30 ------- null}
r -t 0.318096 -s 1 -d 2 -p cbr -e 24 -c 0 -i 31 -a 0 -x {0.0 2.0 31 ------- null}
+ -t 0.32 -s 0 -d 1 -p cbr -e 1000 -c 0 -i 48 -a 0 -x {0.0 2.0 48 ------- null}
- -t 0.32 -s 0 -d 1 -p cbr -e 1000 -c 0 -i 48 -a 0 -x {0.0 2.0 48 ------- null}
h -t 0.32 -s 0 -d 1 -p cbr -e 1000 -c 0 -i 48 -a 0 -x {0.0 2.0 -1 ------- null}
+ -t 0.32 -s 0 -d 1 -p cbr -e 24 -c 0 -i 49 -a 0 -x {0.0 2.0 49 ------- null}
- -t 0.321096 -s 1 -d 2 -p cbr -e 24 -c 0 -i 35 -a 0 -x {0.0 2.0 35 ------- null}
h -t 0.321096 -s 1 -d 2 -p cbr -e 24 -c 0 -i 35 -a 0 -x {0.0 2.0 -1 ------- null}
- -t 0.321288 -s 1 -d 2 -p cbr -e 1000 -c 0 -i 36 -a 0 -x {0.0 2.0 36 ------- null}
h -t 0.321288 -s 1 -d 2 -p cbr -e 1000 -c 0 -i 36 -a 0 -x {0.0 2.0 -1 ------- null}
r -t 0.3216 -s 0 -d 1 -p cbr -e 1000 -c 0 -i 46 -a 0 -x {0.0 2.0 46 ------- null}
+ -t 0.3216 -s 1 -d 2 -p cbr -e 1000 -c 0 -i 46 -a 0 -x {0.0 2.0 46 ------- null}
- -t 0.3216 -s 0 -d 1 -p cbr -e 24 -c 0 -i 49 -a 0 -x {0.0 2.0 49 ------- null}
h -t 0.3216 -s 0 -d 1 -p cbr -e 24 -c 0 -i 49 -a 0 -x {0.0 2.0 -1 ------- null}
r -t 0.3216384 -s 0 -d 1 -p cbr -e 24 -c 0 -i 47 -a 0 -x {0.0 2.0 47 ------- null}
+ -t 0.3216384 -s 1 -d 2 -p cbr -e 24 -c 0 -i 47 -a 0 -x {0.0 2.0 47 ------- null}
+ -t 0.325 -s 0 -d 1 -p cbr -e 1000 -c 0 -i 50 -a 0 -x {0.0 2.0 50 ------- null}
- -t 0.325 -s 0 -d 1 -p cbr -e 1000 -c 0 -i 50 -a 0 -x {0.0 2.0 50 ------- null}
h -t 0.325 -s 0 -d 1 -p cbr -e 1000 -c 0 -i 50 -a 0 -x {0.0 2.0 -1 ------- null}
+ -t 0.325 -s 0 -d 1 -p cbr -e 24 -c 0 -i 51 -a 0 -x {0.0 2.0 51 ------- null}
r -t 0.326096 -s 1 -d 2 -p cbr -e 1000 -c 0 -i 34 -a 0 -x {0.0 2.0 34 ------- null}
r -t 0.326288 -s 1 -d 2 -p cbr -e 24 -c 0 -i 35 -a 0 -x {0.0 2.0 35 ------- null}
r -t 0.3266 -s 0 -d 1 -p cbr -e 1000 -c 0 -i 48 -a 0 -x {0.0 2.0 48 ------- null}
+ -t 0.3266 -s 1 -d 2 -p cbr -e 1000 -c 0 -i 48 -a 0 -x {0.0 2.0 48 ------- null}
d -t 0.3266 -s 1 -d 2 -p cbr -e 1000 -c 0 -i 48 -a 0 -x {0.0 2.0 48 ------- null}
- -t 0.3266 -s 0 -d 1 -p cbr -e 24 -c 0 -i 51 -a 0 -x {0.0 2.0 51 ------- null}
h -t 0.3266 -s 0 -d 1 -p cbr -e 24 -c 0 -i 51 -a 0 -x {0.0 2.0 -1 ------- null}
r -t 0.3266384 -s 0 -d 1 -p cbr -e 24 -c 0 -i 49 -a 0 -x {0.0 2.0 49 ------- null}
+ -t 0.3266384 -s 1 -d 2 -p cbr -e 24 -c 0 -i 49 -a 0 -x {0.0 2.0 49 ------- null}
d -t 0.3266384 -s 1 -d 2 -p cbr -e 24 -c 0 -i 49 -a 0 -x {0.0 2.0 49 ------- null}
- -t 0.329288 -s 1 -d 2 -p cbr -e 1000 -c 0 -i 38 -a 0 -x {0.0 2.0 38 ------- null}
h -t 0.329288 -s 1 -d 2 -p cbr -e 1000 -c 0 -i 38 -a 0 -x {0.0 2.0 -1 ------- null}
+ -t 0.33 -s 0 -d 1 -p cbr -e 1000 -c 0 -i 52 -a 0 -x {0.0 2.0 52 ------- null}
- -t 0.33 -s 0 -d 1 -p cbr -e 1000 -c 0 -i 52 -a 0 -x {0.0 2.0 52 ------- null}
h -t 0.33 -s 0 -d 1 -p cbr -e 1000 -c 0 -i 52 -a 0 -x {0.0 2.0 -1 ------- null}
+ -t 0.33 -s 0 -d 1 -p cbr -e 24 -c 0 -i 53 -a 0 -x {0.0 2.0 53 ------- null}
r -t 0.3316 -s 0 -d 1 -p cbr -e 1000 -c 0 -i 50 -a 0 -x {0.0 2.0 50 ------- null}
+ -t 0.3316 -s 1 -d 2 -p cbr -e 1000 -c 0 -i 50 -a 0 -x {0.0 2.0 50 ------- null}
- -t 0.3316 -s 0 -d 1 -p cbr -e 24 -c 0 -i 53 -a 0 -x {0.0 2.0 53 ------- null}